 DBCSR| CPU Multiplication driver                                           XSMM
 DBCSR| Multrec recursion limit                                              512
 DBCSR| Multiplication stack size                                           1000
 DBCSR| Maximum elements for images                                    UNLIMITED
 DBCSR| Multiplicative factor virtual images                                   1
 DBCSR| Use multiplication densification                                       T
 DBCSR| Multiplication size stacks                                             3
 DBCSR| Number of 3D layers                                               SINGLE
 DBCSR| Use MPI memory allocation                                              T
 DBCSR| Use RMA algorithm                                                      F
 DBCSR| Use Communication thread                                               T
 DBCSR| Communication thread load                                             87


  **** **** ******  **  PROGRAM STARTED AT               2021-11-21 13:58:47.619
 ***** ** ***  *** **   PROGRAM STARTED ON         node1850.palmetto.clemson.edu
 **    ****   ******    PROGRAM STARTED BY                               svicchi
 ***** **    ** ** **   PROGRAM PROCESS ID                               3212744
  **** **  *******  **  PROGRAM STARTED IN  /scratch2/svicchi/CP2K-4052809.pbs02

 CP2K| version string:                                          CP2K version 7.1
 CP2K| source code revision number:                                  git:e635599
 CP2K| cp2kflags: libint fftw3 libxc parallel mpi3 scalapack xsmm               
 CP2K| is freely available from                            https://www.cp2k.org/
 CP2K| Program compiled at                          Wed Aug 12 10:01:37 EDT 2020
 CP2K| Program compiled on                           util02.palmetto.clemson.edu
 CP2K| Program compiled for                          linux-centos8-ivybridge-gcc
 CP2K| Data directory path    /software/spackages/linux-centos8-ivybridge/gcc-8.
 CP2K| Input file name                126_Zr18_C264_Ni4_O100_H182_UKS-multi5.inp

 GLOBAL| Force Environment number                                              1
 GLOBAL| Basis set file name                                          BASIS_file
 GLOBAL| Potential file name                                     POTENTIALS_file
 GLOBAL| MM Potential file name                                     MM_POTENTIAL
 GLOBAL| Coordinate file name           126_Zr18_C264_Ni4_O100_H182_UKS-multi5.x
 GLOBAL| Method name                                                        CP2K
 GLOBAL| Project name                   info-053-126_Zr18_C264_Ni4_O100_H182_UKS
 GLOBAL| Preferred FFT library                                             FFTW3
 GLOBAL| Preferred diagonalization lib.                                       SL
 GLOBAL| Run type                                           VIBRATIONAL_ANALYSIS
 GLOBAL| All-to-all communication in single precision                          F
 GLOBAL| FFTs using library dependent lengths                                  F
 GLOBAL| Global print level                                               MEDIUM
 GLOBAL| MPI I/O enabled                                                       T
 GLOBAL| Total number of message passing processes                            16
 GLOBAL| Number of threads for this process                                    1
 GLOBAL| This output is from process                                           0
 GLOBAL| CPU model name                Intel(R) Xeon(R) CPU E5-2670 v2 @ 2.50GHz
 GLOBAL| CPUID                                                              1001

 MEMORY| system memory details [Kb]
 MEMORY|                        rank 0           min           max       average
 MEMORY| MemTotal            131713748     131713748     131713748     131713748
 MEMORY| MemFree             123882420     123882420     123882420     123882420
 MEMORY| Buffers                  6408          6408          6408          6408
 MEMORY| Cached                3919912       3919912       3919912       3919912
 MEMORY| Slab                   843880        843880        843880        843880
 MEMORY| SReclaimable           405448        405448        405448        405448
 MEMORY| MemLikelyFree       128214188     128214188     128214188     128214188


 *** Fundamental physical constants (SI units) ***

 *** Literature: B. J. Mohr and B. N. Taylor,
 ***             CODATA recommended values of the fundamental physical
 ***             constants: 2006, Web Version 5.1
 ***             http://physics.nist.gov/constants

 Speed of light in vacuum [m/s]                             2.99792458000000E+08
 Magnetic constant or permeability of vacuum [N/A**2]       1.25663706143592E-06
 Electric constant or permittivity of vacuum [F/m]          8.85418781762039E-12
 Planck constant (h) [J*s]                                  6.62606896000000E-34
 Planck constant (h-bar) [J*s]                              1.05457162825177E-34
 Elementary charge [C]                                      1.60217648700000E-19
 Electron mass [kg]                                         9.10938215000000E-31
 Electron g factor [ ]                                     -2.00231930436220E+00
 Proton mass [kg]                                           1.67262163700000E-27
 Fine-structure constant                                    7.29735253760000E-03
 Rydberg constant [1/m]                                     1.09737315685270E+07
 Avogadro constant [1/mol]                                  6.02214179000000E+23
 Boltzmann constant [J/K]                                   1.38065040000000E-23
 Atomic mass unit [kg]                                      1.66053878200000E-27
 Bohr radius [m]                                            5.29177208590000E-11

 *** Conversion factors ***

 [u] -> [a.u.]                                              1.82288848426455E+03
 [Angstrom] -> [Bohr] = [a.u.]                              1.88972613288564E+00
 [a.u.] = [Bohr] -> [Angstrom]                              5.29177208590000E-01
 [a.u.] -> [s]                                              2.41888432650478E-17
 [a.u.] -> [fs]                                             2.41888432650478E-02
 [a.u.] -> [J]                                              4.35974393937059E-18
 [a.u.] -> [N]                                              8.23872205491840E-08
 [a.u.] -> [K]                                              3.15774647902944E+05
 [a.u.] -> [kJ/mol]                                         2.62549961709828E+03
 [a.u.] -> [kcal/mol]                                       6.27509468713739E+02
 [a.u.] -> [Pa]                                             2.94210107994716E+13
 [a.u.] -> [bar]                                            2.94210107994716E+08
 [a.u.] -> [atm]                                            2.90362800883016E+08
 [a.u.] -> [eV]                                             2.72113838565563E+01
 [a.u.] -> [Hz]                                             6.57968392072181E+15
 [a.u.] -> [1/cm] (wave numbers)                            2.19474631370540E+05
 [a.u./Bohr**2] -> [1/cm]                                   5.14048714338585E+03
 

 CELL_TOP| Volume [angstrom^3]:                                        22838.217
 CELL_TOP| Vector a [angstrom    40.611     0.000     0.000    |a| =      40.611
 CELL_TOP| Vector b [angstrom    20.305    35.170     0.000    |b| =      40.611
 CELL_TOP| Vector c [angstrom     0.000     0.000    15.990    |c| =      15.990
 CELL_TOP| Angle (b,c), alpha [degree]:                                   90.000
 CELL_TOP| Angle (a,c), beta  [degree]:                                   90.000
 CELL_TOP| Angle (a,b), gamma [degree]:                                   60.000
 CELL_TOP| Requested initial symmetry:                       MONOCLINIC_GAMMA_AB
 CELL_TOP| Numerically orthorhombic:                                          NO

 CELL| Volume [angstrom^3]:                                            22838.217
 CELL| Vector a [angstrom]:      40.611     0.000     0.000    |a| =      40.611
 CELL| Vector b [angstrom]:      20.305    35.170     0.000    |b| =      40.611
 CELL| Vector c [angstrom]:       0.000     0.000    15.990    |c| =      15.990
 CELL| Angle (b,c), alpha [degree]:                                       90.000
 CELL| Angle (a,c), beta  [degree]:                                       90.000
 CELL| Angle (a,b), gamma [degree]:                                       60.000
 CELL| Requested initial symmetry:                           MONOCLINIC_GAMMA_AB
 CELL| Numerically orthorhombic:                                              NO

 CELL_REF| Volume [angstrom^3]:                                        22838.217
 CELL_REF| Vector a [angstrom    40.611     0.000     0.000    |a| =      40.611
 CELL_REF| Vector b [angstrom    20.305    35.170     0.000    |b| =      40.611
 CELL_REF| Vector c [angstrom     0.000     0.000    15.990    |c| =      15.990
 CELL_REF| Angle (b,c), alpha [degree]:                                   90.000
 CELL_REF| Angle (a,c), beta  [degree]:                                   90.000
 CELL_REF| Angle (a,b), gamma [degree]:                                   60.000
 CELL_REF| Requested initial symmetry:                       MONOCLINIC_GAMMA_AB
 CELL_REF| Numerically orthorhombic:                                          NO

 *******************************************************************************
 *******************************************************************************
 **                                                                           **
 **     #####                         ##              ##                      **
 **    ##   ##            ##          ##              ##                      **
 **   ##     ##                       ##            ######                    **
 **   ##     ##  ##   ##  ##   #####  ##  ##   ####   ##    #####    #####    **
 **   ##     ##  ##   ##  ##  ##      ## ##   ##      ##   ##   ##  ##   ##   **
 **   ##  ## ##  ##   ##  ##  ##      ####     ###    ##   ######   ######    **
 **    ##  ###   ##   ##  ##  ##      ## ##      ##   ##   ##       ##        **
 **     #######   #####   ##   #####  ##  ##  ####    ##    #####   ##        **
 **           ##                                                    ##        **
 **                                                                           **
 **                                                ... make the atoms dance   **
 **                                                                           **
 **            Copyright (C) by CP2K developers group (2000 - 2019)           **
 **                                                                           **
 *******************************************************************************

 DFT| Spin unrestricted (spin-polarized) Kohn-Sham calculation               UKS
 DFT| Multiplicity                                                             5
 DFT| Number of spin states                                                    2
 DFT| Charge                                                                   0
 DFT| Self-interaction correction (SIC)                                       NO
 DFT| Cutoffs: density                                              1.000000E-10
 DFT|          gradient                                             1.000000E-10
 DFT|          tau                                                  1.000000E-10
 DFT|          cutoff_smoothing_range                               0.000000E+00
 DFT| XC density smoothing                                                  NONE
 DFT| XC derivatives                                                          PW
 FUNCTIONAL| ROUTINE=NEW
 FUNCTIONAL| PBE:
 FUNCTIONAL| J.P.Perdew, K.Burke, M.Ernzerhof, Phys. Rev. Letter, vol. 77, n 18,
 FUNCTIONAL|  pp. 3865-3868, (1996){spin polarized}                             
 vdW POTENTIAL|                                                   Pair Potential
 vdW POTENTIAL|          DFT-D3 (Version 3.1)
 vdW POTENTIAL|          Potential Form: S. Grimme et al, JCP 132: 154104 (2010)
 vdW POTENTIAL|          BJ Damping: S. Grimme et al, JCC 32: 1456 (2011)
 vdW POTENTIAL|          Cutoff Radius [Bohr]:                             20.00
 vdW POTENTIAL|          s6 Scaling Factor:                               1.0000
 vdW POTENTIAL|          a1 Damping Factor:                               0.4289
 vdW POTENTIAL|          s8 Scaling Factor:                               0.7875
 vdW POTENTIAL|          a2 Damping Factor:                               4.4407
 vdW POTENTIAL|          Cutoff for CN calculation:                   0.1000E-05

 QS| Method:                                                                 GPW
 QS| Density plane wave grid type                        NON-SPHERICAL FULLSPACE
 QS| Number of grid levels:                                                    5
 QS| Density cutoff [a.u.]:                                                180.0
 QS| Multi grid cutoff [a.u.]: 1) grid level                               180.0
 QS|                           2) grid level                                60.0
 QS|                           3) grid level                                20.0
 QS|                           4) grid level                                 6.7
 QS|                           5) grid level                                 2.2
 QS| Grid level progression factor:                                          3.0
 QS| Relative density cutoff [a.u.]:                                        40.0
 QS| Consistent realspace mapping and integration 
 QS| Interaction thresholds: eps_pgf_orb:                                1.0E-05
 QS|                         eps_filter_matrix:                          0.0E+00
 QS|                         eps_core_charge:                            1.0E-12
 QS|                         eps_rho_gspace:                             1.0E-10
 QS|                         eps_rho_rspace:                             1.0E-10
 QS|                         eps_gvg_rspace:                             1.0E-05
 QS|                         eps_ppl:                                    1.0E-02
 QS|                         eps_ppnl:                                   1.0E-07


 ATOMIC KIND INFORMATION

  1. Atomic kind: C                                     Number of atoms:     264

     Orbital Basis Set                                     DZVP-MOLOPT-SR-GTH-q4

       Number of orbital shell sets:                                           1
       Number of orbital shells:                                               5
       Number of primitive Cartesian functions:                                5
       Number of Cartesian basis functions:                                   14
       Number of spherical basis functions:                                   13
       Norm type:                                                              2

       Normalised Cartesian orbitals:

                        Set   Shell   Orbital            Exponent    Coefficient

                          1       1    2s                5.605331       0.322515
                                                         2.113016       0.213043
                                                         0.769911      -0.209686
                                                         0.348157      -0.219794
                                                         0.128212      -0.022789

                          1       2    3s                5.605331       0.552234
                                                         2.113016       0.082072
                                                         0.769911       0.007843
                                                         0.348157       0.136893
                                                         0.128212       0.074283

                          1       3    3px               5.605331      -0.703879
                                                         2.113016      -0.642521
                                                         0.769911      -0.374851
                                                         0.348157      -0.139743
                                                         0.128212      -0.027849
                          1       3    3py               5.605331      -0.703879
                                                         2.113016      -0.642521
                                                         0.769911      -0.374851
                                                         0.348157      -0.139743
                                                         0.128212      -0.027849
                          1       3    3pz               5.605331      -0.703879
                                                         2.113016      -0.642521
                                                         0.769911      -0.374851
                                                         0.348157      -0.139743
                                                         0.128212      -0.027849

                          1       4    4px               5.605331      -0.480376
                                                         2.113016      -0.552894
                                                         0.769911      -0.316145
                                                         0.348157       0.210505
                                                         0.128212       0.076095
                          1       4    4py               5.605331      -0.480376
                                                         2.113016      -0.552894
                                                         0.769911      -0.316145
                                                         0.348157       0.210505
                                                         0.128212       0.076095
                          1       4    4pz               5.605331      -0.480376
                                                         2.113016      -0.552894
                                                         0.769911      -0.316145
                                                         0.348157       0.210505
                                                         0.128212       0.076095

                          1       5    4dx2              5.605331       0.640026
                                                         2.113016       0.274300
                                                         0.769911       0.446711
                                                         0.348157       0.028674
                                                         0.128212       0.029790
                          1       5    4dxy              5.605331       1.108557
                                                         2.113016       0.475102
                                                         0.769911       0.773726
                                                         0.348157       0.049666
                                                         0.128212       0.051599
                          1       5    4dxz              5.605331       1.108557
                                                         2.113016       0.475102
                                                         0.769911       0.773726
                                                         0.348157       0.049666
                                                         0.128212       0.051599
                          1       5    4dy2              5.605331       0.640026
                                                         2.113016       0.274300
                                                         0.769911       0.446711
                                                         0.348157       0.028674
                                                         0.128212       0.029790
                          1       5    4dyz              5.605331       1.108557
                                                         2.113016       0.475102
                                                         0.769911       0.773726
                                                         0.348157       0.049666
                                                         0.128212       0.051599
                          1       5    4dz2              5.605331       0.640026
                                                         2.113016       0.274300
                                                         0.769911       0.446711
                                                         0.348157       0.028674
                                                         0.128212       0.029790

     GTH Potential information for                                    GTH-PBE-q4

       Description:                       Goedecker-Teter-Hutter pseudopotential
                                           Goedecker et al., PRB 54, 1703 (1996)
                                          Hartwigsen et al., PRB 58, 3641 (1998)
                                                      Krack, TCA 114, 145 (2005)

       Gaussian exponent of the core charge distribution:               4.364419
       Electronic configuration (s p d ...):                               2   2

       Parameters of the local part of the GTH pseudopotential:

                          rloc        C1          C2          C3          C4
                        0.338471   -8.803674    1.339211

       Parameters of the non-local part of the GTH pseudopotential:

                   l      r(l)      h(i,j,l)

                   0    0.302576    9.622487
                   1    0.291507

  2. Atomic kind: Zr                                    Number of atoms:      18

     Orbital Basis Set                                    DZVP-MOLOPT-SR-GTH-q12

       Number of orbital shell sets:                                           1
       Number of orbital shells:                                               8
       Number of primitive Cartesian functions:                                7
       Number of Cartesian basis functions:                                   31
       Number of spherical basis functions:                                   26
       Norm type:                                                              2

       Normalised Cartesian orbitals:

                        Set   Shell   Orbital            Exponent    Coefficient

                          1       1    2s                7.568386      -0.292925
                                                         2.940870       1.053802
                                                         1.478550      -0.194175
                                                         0.699653      -0.477593
                                                         0.314575      -0.092850
                                                         0.129869       0.000474
                                                         0.046851      -0.000485

                          1       2    3s                7.568386      -0.107602
                                                         2.940870       0.453694
                                                         1.478550      -0.133469
                                                         0.699653      -0.242646
                                                         0.314575      -0.112324
                                                         0.129869       0.079936
                                                         0.046851       0.057275

                          1       3    4s                7.568386      -0.039443
                                                         2.940870      -0.239516
                                                         1.478550       0.462939
                                                         0.699653       0.054202
                                                         0.314575       0.378792
                                                         0.129869      -0.467495
                                                         0.046851       0.135277

                          1       4    3px               7.568386      -0.367032
                                                         2.940870       1.199938
                                                         1.478550      -0.729727
                                                         0.699653      -0.527717
                                                         0.314575      -0.102074
                                                         0.129869      -0.002163
                                                         0.046851      -0.000016
                          1       4    3py               7.568386      -0.367032
                                                         2.940870       1.199938
                                                         1.478550      -0.729727
                                                         0.699653      -0.527717
                                                         0.314575      -0.102074
                                                         0.129869      -0.002163
                                                         0.046851      -0.000016
                          1       4    3pz               7.568386      -0.367032
                                                         2.940870       1.199938
                                                         1.478550      -0.729727
                                                         0.699653      -0.527717
                                                         0.314575      -0.102074
                                                         0.129869      -0.002163
                                                         0.046851      -0.000016

                          1       5    4px               7.568386      -0.041149
                                                         2.940870       0.296409
                                                         1.478550      -0.285807
                                                         0.699653      -0.254468
                                                         0.314575       0.008755
                                                         0.129869       0.053085
                                                         0.046851       0.019526
                          1       5    4py               7.568386      -0.041149
                                                         2.940870       0.296409
                                                         1.478550      -0.285807
                                                         0.699653      -0.254468
                                                         0.314575       0.008755
                                                         0.129869       0.053085
                                                         0.046851       0.019526
                          1       5    4pz               7.568386      -0.041149
                                                         2.940870       0.296409
                                                         1.478550      -0.285807
                                                         0.699653      -0.254468
                                                         0.314575       0.008755
                                                         0.129869       0.053085
                                                         0.046851       0.019526

                          1       6    4dx2              7.568386      -0.104612
                                                         2.940870      -0.141339
                                                         1.478550       0.540679
                                                         0.699653       0.284252
                                                         0.314575       0.094561
                                                         0.129869       0.012195
                                                         0.046851       0.000412
                          1       6    4dxy              7.568386      -0.181193
                                                         2.940870      -0.244806
                                                         1.478550       0.936483
                                                         0.699653       0.492339
                                                         0.314575       0.163785
                                                         0.129869       0.021122
                                                         0.046851       0.000713
                          1       6    4dxz              7.568386      -0.181193
                                                         2.940870      -0.244806
                                                         1.478550       0.936483
                                                         0.699653       0.492339
                                                         0.314575       0.163785
                                                         0.129869       0.021122
                                                         0.046851       0.000713
                          1       6    4dy2              7.568386      -0.104612
                                                         2.940870      -0.141339
                                                         1.478550       0.540679
                                                         0.699653       0.284252
                                                         0.314575       0.094561
                                                         0.129869       0.012195
                                                         0.046851       0.000412
                          1       6    4dyz              7.568386      -0.181193
                                                         2.940870      -0.244806
                                                         1.478550       0.936483
                                                         0.699653       0.492339
                                                         0.314575       0.163785
                                                         0.129869       0.021122
                                                         0.046851       0.000713
                          1       6    4dz2              7.568386      -0.104612
                                                         2.940870      -0.141339
                                                         1.478550       0.540679
                                                         0.699653       0.284252
                                                         0.314575       0.094561
                                                         0.129869       0.012195
                                                         0.046851       0.000412

                          1       7    5dx2              7.568386      -0.107600
                                                         2.940870       0.230973
                                                         1.478550      -0.200541
                                                         0.699653      -0.193347
                                                         0.314575       0.007888
                                                         0.129869       0.006706
                                                         0.046851       0.006900
                          1       7    5dxy              7.568386      -0.186369
                                                         2.940870       0.400056
                                                         1.478550      -0.347346
                                                         0.699653      -0.334887
                                                         0.314575       0.013663
                                                         0.129869       0.011615
                                                         0.046851       0.011951
                          1       7    5dxz              7.568386      -0.186369
                                                         2.940870       0.400056
                                                         1.478550      -0.347346
                                                         0.699653      -0.334887
                                                         0.314575       0.013663
                                                         0.129869       0.011615
                                                         0.046851       0.011951
                          1       7    5dy2              7.568386      -0.107600
                                                         2.940870       0.230973
                                                         1.478550      -0.200541
                                                         0.699653      -0.193347
                                                         0.314575       0.007888
                                                         0.129869       0.006706
                                                         0.046851       0.006900
                          1       7    5dyz              7.568386      -0.186369
                                                         2.940870       0.400056
                                                         1.478550      -0.347346
                                                         0.699653      -0.334887
                                                         0.314575       0.013663
                                                         0.129869       0.011615
                                                         0.046851       0.011951
                          1       7    5dz2              7.568386      -0.107600
                                                         2.940870       0.230973
                                                         1.478550      -0.200541
                                                         0.699653      -0.193347
                                                         0.314575       0.007888
                                                         0.129869       0.006706
                                                         0.046851       0.006900

                          1       8    5fx3              7.568386       0.371480
                                                         2.940870      -0.155968
                                                         1.478550      -0.211323
                                                         0.699653      -0.255968
                                                         0.314575      -0.046738
                                                         0.129869      -0.005674
                                                         0.046851       0.000171
                          1       8    5fx2y             7.568386       0.830655
                                                         2.940870      -0.348756
                                                         1.478550      -0.472533
                                                         0.699653      -0.572361
                                                         0.314575      -0.104510
                                                         0.129869      -0.012687
                                                         0.046851       0.000382
                          1       8    5fx2z             7.568386       0.830655
                                                         2.940870      -0.348756
                                                         1.478550      -0.472533
                                                         0.699653      -0.572361
                                                         0.314575      -0.104510
                                                         0.129869      -0.012687
                                                         0.046851       0.000382
                          1       8    5fxy2             7.568386       0.830655
                                                         2.940870      -0.348756
                                                         1.478550      -0.472533
                                                         0.699653      -0.572361
                                                         0.314575      -0.104510
                                                         0.129869      -0.012687
                                                         0.046851       0.000382
                          1       8    5fxyz             7.568386       1.438737
                                                         2.940870      -0.604063
                                                         1.478550      -0.818452
                                                         0.699653      -0.991359
                                                         0.314575      -0.181017
                                                         0.129869      -0.021975
                                                         0.046851       0.000662
                          1       8    5fxz2             7.568386       0.830655
                                                         2.940870      -0.348756
                                                         1.478550      -0.472533
                                                         0.699653      -0.572361
                                                         0.314575      -0.104510
                                                         0.129869      -0.012687
                                                         0.046851       0.000382
                          1       8    5fy3              7.568386       0.371480
                                                         2.940870      -0.155968
                                                         1.478550      -0.211323
                                                         0.699653      -0.255968
                                                         0.314575      -0.046738
                                                         0.129869      -0.005674
                                                         0.046851       0.000171
                          1       8    5fy2z             7.568386       0.830655
                                                         2.940870      -0.348756
                                                         1.478550      -0.472533
                                                         0.699653      -0.572361
                                                         0.314575      -0.104510
                                                         0.129869      -0.012687
                                                         0.046851       0.000382
                          1       8    5fyz2             7.568386       0.830655
                                                         2.940870      -0.348756
                                                         1.478550      -0.472533
                                                         0.699653      -0.572361
                                                         0.314575      -0.104510
                                                         0.129869      -0.012687
                                                         0.046851       0.000382
                          1       8    5fz3              7.568386       0.371480
                                                         2.940870      -0.155968
                                                         1.478550      -0.211323
                                                         0.699653      -0.255968
                                                         0.314575      -0.046738
                                                         0.129869      -0.005674
                                                         0.046851       0.000171

     GTH Potential information for                                   GTH-PBE-q12

       Description:                       Goedecker-Teter-Hutter pseudopotential
                                           Goedecker et al., PRB 54, 1703 (1996)
                                          Hartwigsen et al., PRB 58, 3641 (1998)
                                                      Krack, TCA 114, 145 (2005)

       Gaussian exponent of the core charge distribution:               2.263468
       Electronic configuration (s p d ...):                           4   6   2

       Parameters of the local part of the GTH pseudopotential:

                          rloc        C1          C2          C3          C4
                        0.470000    7.796057   -1.893210

       Parameters of the non-local part of the GTH pseudopotential:

                   l      r(l)      h(i,j,l)

                   0    0.259829   23.380874   -8.571939
                                   -8.571939   11.066326
                   1    0.288969    8.592766   -5.377358
                                   -5.377358    6.362576
                   2    0.581245    0.027811    0.276862
                                    0.276862   -0.313932

  3. Atomic kind: H                                     Number of atoms:     182

     Orbital Basis Set                                     DZVP-MOLOPT-SR-GTH-q1

       Number of orbital shell sets:                                           1
       Number of orbital shells:                                               3
       Number of primitive Cartesian functions:                                5
       Number of Cartesian basis functions:                                    5
       Number of spherical basis functions:                                    5
       Norm type:                                                              2

       Normalised Cartesian orbitals:

                        Set   Shell   Orbital            Exponent    Coefficient

                          1       1    2s               10.068468      -0.133023
                                                         2.680223      -0.177618
                                                         0.791502      -0.258419
                                                         0.239116      -0.107525
                                                         0.082193      -0.014019

                          1       2    3s               10.068468       0.344673
                                                         2.680223       1.819821
                                                         0.791502      -0.999069
                                                         0.239116       0.017430
                                                         0.082193       0.082660

                          1       3    3px              10.068468       0.155326
                                                         2.680223       0.367157
                                                         0.791502       0.311480
                                                         0.239116       0.080105
                                                         0.082193       0.033440
                          1       3    3py              10.068468       0.155326
                                                         2.680223       0.367157
                                                         0.791502       0.311480
                                                         0.239116       0.080105
                                                         0.082193       0.033440
                          1       3    3pz              10.068468       0.155326
                                                         2.680223       0.367157
                                                         0.791502       0.311480
                                                         0.239116       0.080105
                                                         0.082193       0.033440

     GTH Potential information for                                    GTH-PBE-q1

       Description:                       Goedecker-Teter-Hutter pseudopotential
                                           Goedecker et al., PRB 54, 1703 (1996)
                                          Hartwigsen et al., PRB 58, 3641 (1998)
                                                      Krack, TCA 114, 145 (2005)

       Gaussian exponent of the core charge distribution:              12.500000
       Electronic configuration (s p d ...):                                   1

       Parameters of the local part of the GTH pseudopotential:

                          rloc        C1          C2          C3          C4
                        0.200000   -4.178900    0.724463

  4. Atomic kind: O                                     Number of atoms:     100

     Orbital Basis Set                                     DZVP-MOLOPT-SR-GTH-q6

       Number of orbital shell sets:                                           1
       Number of orbital shells:                                               5
       Number of primitive Cartesian functions:                                5
       Number of Cartesian basis functions:                                   14
       Number of spherical basis functions:                                   13
       Norm type:                                                              2

       Normalised Cartesian orbitals:

                        Set   Shell   Orbital            Exponent    Coefficient

                          1       1    2s               10.389228       0.396646
                                                         3.849621       0.208811
                                                         1.388401      -0.301641
                                                         0.496955      -0.274061
                                                         0.162492      -0.033677

                          1       2    3s               10.389228       0.303673
                                                         3.849621       0.240943
                                                         1.388401      -0.313066
                                                         0.496955      -0.043055
                                                         0.162492       0.213991

                          1       3    3px              10.389228      -1.530415
                                                         3.849621      -1.371928
                                                         1.388401      -0.761951
                                                         0.496955      -0.253695
                                                         0.162492      -0.035541
                          1       3    3py              10.389228      -1.530415
                                                         3.849621      -1.371928
                                                         1.388401      -0.761951
                                                         0.496955      -0.253695
                                                         0.162492      -0.035541
                          1       3    3pz              10.389228      -1.530415
                                                         3.849621      -1.371928
                                                         1.388401      -0.761951
                                                         0.496955      -0.253695
                                                         0.162492      -0.035541

                          1       4    4px              10.389228      -0.565392
                                                         3.849621      -0.038231
                                                         1.388401      -0.382373
                                                         0.496955       0.179070
                                                         0.162492       0.122714
                          1       4    4py              10.389228      -0.565392
                                                         3.849621      -0.038231
                                                         1.388401      -0.382373
                                                         0.496955       0.179070
                                                         0.162492       0.122714
                          1       4    4pz              10.389228      -0.565392
                                                         3.849621      -0.038231
                                                         1.388401      -0.382373
                                                         0.496955       0.179070
                                                         0.162492       0.122714

                          1       5    4dx2             10.389228       1.867377
                                                         3.849621       0.670994
                                                         1.388401       1.353441
                                                         0.496955       0.273538
                                                         0.162492       0.006620
                          1       5    4dxy             10.389228       3.234392
                                                         3.849621       1.162195
                                                         1.388401       2.344229
                                                         0.496955       0.473781
                                                         0.162492       0.011466
                          1       5    4dxz             10.389228       3.234392
                                                         3.849621       1.162195
                                                         1.388401       2.344229
                                                         0.496955       0.473781
                                                         0.162492       0.011466
                          1       5    4dy2             10.389228       1.867377
                                                         3.849621       0.670994
                                                         1.388401       1.353441
                                                         0.496955       0.273538
                                                         0.162492       0.006620
                          1       5    4dyz             10.389228       3.234392
                                                         3.849621       1.162195
                                                         1.388401       2.344229
                                                         0.496955       0.473781
                                                         0.162492       0.011466
                          1       5    4dz2             10.389228       1.867377
                                                         3.849621       0.670994
                                                         1.388401       1.353441
                                                         0.496955       0.273538
                                                         0.162492       0.006620

     GTH Potential information for                                    GTH-PBE-q6

       Description:                       Goedecker-Teter-Hutter pseudopotential
                                           Goedecker et al., PRB 54, 1703 (1996)
                                          Hartwigsen et al., PRB 58, 3641 (1998)
                                                      Krack, TCA 114, 145 (2005)

       Gaussian exponent of the core charge distribution:               8.360253
       Electronic configuration (s p d ...):                               2   4

       Parameters of the local part of the GTH pseudopotential:

                          rloc        C1          C2          C3          C4
                        0.244554  -16.667215    2.487311

       Parameters of the non-local part of the GTH pseudopotential:

                   l      r(l)      h(i,j,l)

                   0    0.220956   18.337458
                   1    0.211332

  5. Atomic kind: Ni                                    Number of atoms:       4

     Orbital Basis Set                                    DZVP-MOLOPT-SR-GTH-q18

       Number of orbital shell sets:                                           1
       Number of orbital shells:                                               8
       Number of primitive Cartesian functions:                                6
       Number of Cartesian basis functions:                                   31
       Number of spherical basis functions:                                   26
       Norm type:                                                              2

       Normalised Cartesian orbitals:

                        Set   Shell   Orbital            Exponent    Coefficient

                          1       1    2s               10.077428      -0.684558
                                                         5.847736      -0.844524
                                                         2.494033       1.088856
                                                         0.988355       0.395503
                                                         0.344978       0.010224
                                                         0.099466      -0.003250

                          1       2    3s               10.077428       0.096747
                                                         5.847736       0.162504
                                                         2.494033      -0.297192
                                                         0.988355      -0.319752
                                                         0.344978       0.088318
                                                         0.099466       0.118587

                          1       3    4s               10.077428       0.036437
                                                         5.847736      -0.381480
                                                         2.494033       0.003759
                                                         0.988355      -1.048256
                                                         0.344978       0.855825
                                                         0.099466      -0.176350

                          1       4    3px              10.077428      -3.133913
                                                         5.847736       3.027656
                                                         2.494033       2.353227
                                                         0.988355       0.554184
                                                         0.344978       0.019462
                                                         0.099466      -0.000291
                          1       4    3py              10.077428      -3.133913
                                                         5.847736       3.027656
                                                         2.494033       2.353227
                                                         0.988355       0.554184
                                                         0.344978       0.019462
                                                         0.099466      -0.000291
                          1       4    3pz              10.077428      -3.133913
                                                         5.847736       3.027656
                                                         2.494033       2.353227
                                                         0.988355       0.554184
                                                         0.344978       0.019462
                                                         0.099466      -0.000291

                          1       5    4px              10.077428      -0.112729
                                                         5.847736      -0.114008
                                                         2.494033      -0.347303
                                                         0.988355      -0.110323
                                                         0.344978       0.154096
                                                         0.099466       0.058386
                          1       5    4py              10.077428      -0.112729
                                                         5.847736      -0.114008
                                                         2.494033      -0.347303
                                                         0.988355      -0.110323
                                                         0.344978       0.154096
                                                         0.099466       0.058386
                          1       5    4pz              10.077428      -0.112729
                                                         5.847736      -0.114008
                                                         2.494033      -0.347303
                                                         0.988355      -0.110323
                                                         0.344978       0.154096
                                                         0.099466       0.058386

                          1       6    4dx2             10.077428       8.232726
                                                         5.847736       9.105758
                                                         2.494033       2.849835
                                                         0.988355       0.554319
                                                         0.344978       0.067245
                                                         0.099466       0.001940
                          1       6    4dxy             10.077428      14.259500
                                                         5.847736      15.771636
                                                         2.494033       4.936060
                                                         0.988355       0.960109
                                                         0.344978       0.116472
                                                         0.099466       0.003360
                          1       6    4dxz             10.077428      14.259500
                                                         5.847736      15.771636
                                                         2.494033       4.936060
                                                         0.988355       0.960109
                                                         0.344978       0.116472
                                                         0.099466       0.003360
                          1       6    4dy2             10.077428       8.232726
                                                         5.847736       9.105758
                                                         2.494033       2.849835
                                                         0.988355       0.554319
                                                         0.344978       0.067245
                                                         0.099466       0.001940
                          1       6    4dyz             10.077428      14.259500
                                                         5.847736      15.771636
                                                         2.494033       4.936060
                                                         0.988355       0.960109
                                                         0.344978       0.116472
                                                         0.099466       0.003360
                          1       6    4dz2             10.077428       8.232726
                                                         5.847736       9.105758
                                                         2.494033       2.849835
                                                         0.988355       0.554319
                                                         0.344978       0.067245
                                                         0.099466       0.001940

                          1       7    5dx2             10.077428      -2.715373
                                                         5.847736      -4.020640
                                                         2.494033      -1.397569
                                                         0.988355      -0.076143
                                                         0.344978       0.033435
                                                         0.099466       0.026032
                          1       7    5dxy             10.077428      -4.703164
                                                         5.847736      -6.963952
                                                         2.494033      -2.420661
                                                         0.988355      -0.131883
                                                         0.344978       0.057911
                                                         0.099466       0.045088
                          1       7    5dxz             10.077428      -4.703164
                                                         5.847736      -6.963952
                                                         2.494033      -2.420661
                                                         0.988355      -0.131883
                                                         0.344978       0.057911
                                                         0.099466       0.045088
                          1       7    5dy2             10.077428      -2.715373
                                                         5.847736      -4.020640
                                                         2.494033      -1.397569
                                                         0.988355      -0.076143
                                                         0.344978       0.033435
                                                         0.099466       0.026032
                          1       7    5dyz             10.077428      -4.703164
                                                         5.847736      -6.963952
                                                         2.494033      -2.420661
                                                         0.988355      -0.131883
                                                         0.344978       0.057911
                                                         0.099466       0.045088
                          1       7    5dz2             10.077428      -2.715373
                                                         5.847736      -4.020640
                                                         2.494033      -1.397569
                                                         0.988355      -0.076143
                                                         0.344978       0.033435
                                                         0.099466       0.026032

                          1       8    5fx3             10.077428      -0.467694
                                                         5.847736       0.618100
                                                         2.494033       0.066069
                                                         0.988355       0.262898
                                                         0.344978       0.004720
                                                         0.099466       0.007748
                          1       8    5fx2y            10.077428      -1.045795
                                                         5.847736       1.382114
                                                         2.494033       0.147734
                                                         0.988355       0.587859
                                                         0.344978       0.010555
                                                         0.099466       0.017325
                          1       8    5fx2z            10.077428      -1.045795
                                                         5.847736       1.382114
                                                         2.494033       0.147734
                                                         0.988355       0.587859
                                                         0.344978       0.010555
                                                         0.099466       0.017325
                          1       8    5fxy2            10.077428      -1.045795
                                                         5.847736       1.382114
                                                         2.494033       0.147734
                                                         0.988355       0.587859
                                                         0.344978       0.010555
                                                         0.099466       0.017325
                          1       8    5fxyz            10.077428      -1.811371
                                                         5.847736       2.393892
                                                         2.494033       0.255883
                                                         0.988355       1.018201
                                                         0.344978       0.018282
                                                         0.099466       0.030008
                          1       8    5fxz2            10.077428      -1.045795
                                                         5.847736       1.382114
                                                         2.494033       0.147734
                                                         0.988355       0.587859
                                                         0.344978       0.010555
                                                         0.099466       0.017325
                          1       8    5fy3             10.077428      -0.467694
                                                         5.847736       0.618100
                                                         2.494033       0.066069
                                                         0.988355       0.262898
                                                         0.344978       0.004720
                                                         0.099466       0.007748
                          1       8    5fy2z            10.077428      -1.045795
                                                         5.847736       1.382114
                                                         2.494033       0.147734
                                                         0.988355       0.587859
                                                         0.344978       0.010555
                                                         0.099466       0.017325
                          1       8    5fyz2            10.077428      -1.045795
                                                         5.847736       1.382114
                                                         2.494033       0.147734
                                                         0.988355       0.587859
                                                         0.344978       0.010555
                                                         0.099466       0.017325
                          1       8    5fz3             10.077428      -0.467694
                                                         5.847736       0.618100
                                                         2.494033       0.066069
                                                         0.988355       0.262898
                                                         0.344978       0.004720
                                                         0.099466       0.007748

     GTH Potential information for                                   GTH-PBE-q18

       Description:                       Goedecker-Teter-Hutter pseudopotential
                                           Goedecker et al., PRB 54, 1703 (1996)
                                          Hartwigsen et al., PRB 58, 3641 (1998)
                                                      Krack, TCA 114, 145 (2005)

       Gaussian exponent of the core charge distribution:               4.081633
       Electronic configuration (s p d ...):                           4   6   8

       Parameters of the local part of the GTH pseudopotential:

                          rloc        C1          C2          C3          C4
                        0.350000    2.102166    0.648484

       Parameters of the non-local part of the GTH pseudopotential:

                   l      r(l)      h(i,j,l)

                   0    0.261295    0.622658    9.970227
                                    9.970227  -12.871507
                   1    0.224253  -11.142708   12.429566
                                   12.429566  -14.706861
                   2    0.215348  -12.628146


 MOLECULE KIND INFORMATION


 All atoms are their own molecule, skipping detailed information


 TOTAL NUMBERS AND MAXIMUM NUMBERS

  Total number of            - Atomic kinds:                                   5
                             - Atoms:                                        568
                             - Shell sets:                                   568
                             - Shells:                                      2542
                             - Primitive Cartesian functions:               2880
                             - Cartesian basis functions:                   6688
                             - Spherical basis functions:                   6214

  Maximum angular momentum of- Orbital basis functions:                        3
                             - Local part of the GTH pseudopotential:          2
                             - Non-local part of the GTH pseudopotential:      4


 MODULE QUICKSTEP:  ATOMIC COORDINATES IN angstrom

  Atom  Kind  Element       X           Y           Z          Z(eff)       Mass

       1     1 C    6   11.858585   14.053604   21.731361      4.00      12.0107
       2     1 C    6   12.456099   12.890546   21.013121      4.00      12.0107
       3     1 C    6   11.704540   12.171891   20.071163      4.00      12.0107
       4     1 C    6   12.280906   11.109660   19.378824      4.00      12.0107
       5     1 C    6   13.621362   10.739614   19.606816      4.00      12.0107
       6     1 C    6   14.354353   11.442871   20.580646      4.00      12.0107
       7     1 C    6   13.781480   12.507871   21.272139      4.00      12.0107
       8     1 C    6   14.260959    9.648994   18.833412      4.00      12.0107
       9     1 C    6   14.256447    9.656999   17.411708      4.00      12.0107
      10     1 C    6   13.743291   10.759120   16.657791      4.00      12.0107
      11     1 C    6   49.126537   21.233304   21.869570      4.00      12.0107
      12     1 C    6   48.549743   22.401134   21.142442      4.00      12.0107
      13     1 C    6   49.299885   23.068613   20.161625      4.00      12.0107
      14     1 C    6   48.732955   24.107713   19.428391      4.00      12.0107
      15     1 C    6   47.402322   24.509181   19.656819      4.00      12.0107
      16     1 C    6   46.671210   23.860084   20.670073      4.00      12.0107
      17     1 C    6   47.233663   22.815209   21.399470      4.00      12.0107
      18     1 C    6   46.772165   25.586912   18.859517      4.00      12.0107
      19     1 C    6   46.761402   25.557422   17.437747      4.00      12.0107
      20     1 C    6   47.261329   24.442306   16.694275      4.00      12.0107
      21     1 C    6   14.860430    8.570687   16.698439      4.00      12.0107
      22     1 C    6   14.891676    8.596994   19.510052      4.00      12.0107
      23     1 C    6   49.113109   21.203439   10.145344      4.00      12.0107
      24     1 C    6   48.527753   22.364757   10.872491      4.00      12.0107
      25     1 C    6   49.267095   23.025693   11.865187      4.00      12.0107
      26     1 C    6   48.690752   24.060230   12.596646      4.00      12.0107
      27     1 C    6   47.360228   24.456775   12.358618      4.00      12.0107
      28     1 C    6   46.639646   23.811572   11.335406      4.00      12.0107
      29     1 C    6   47.213206   22.775664   10.603629      4.00      12.0107
      30     1 C    6   46.721835   25.531783   13.149637      4.00      12.0107
      31     1 C    6   46.733704   25.528242   14.571335      4.00      12.0107
      32     1 C    6   47.249109   24.429018   15.327721      4.00      12.0107
      33     1 C    6   40.620460   17.088361   15.310170      4.00      12.0107
      34     1 C    6   40.631441   17.101529   12.500558      4.00      12.0107
      35     1 C    6   11.882839   14.086584   10.285469      4.00      12.0107
      36     1 C    6   12.472180   12.910704   10.989698      4.00      12.0107
      37     1 C    6   11.714737   12.177671   11.915985      4.00      12.0107
      38     1 C    6   12.281297   11.095205   12.584426      4.00      12.0107
      39     1 C    6   13.620020   10.721271   12.352403      4.00      12.0107
      40     1 C    6   14.357891   11.436621   11.391356      4.00      12.0107
      41     1 C    6   13.792484   12.517802   10.718657      4.00      12.0107
      42     1 C    6   14.253680    9.624561   13.122831      4.00      12.0107
      43     1 C    6   14.252575    9.644623   14.544672      4.00      12.0107
      44     1 C    6   13.742751   10.753592   15.291747      4.00      12.0107
      45     1 C    6   22.511103    3.244766   21.741705      4.00      12.0107
      46     1 C    6   23.223779    4.350108   21.039114      4.00      12.0107
      47     1 C    6   24.221353    4.069513   20.093700      4.00      12.0107
      48     1 C    6   24.847706    5.108347   19.409747      4.00      12.0107
      49     1 C    6   24.492127    6.450375   19.650669      4.00      12.0107
      50     1 C    6   23.521955    6.722564   20.632537      4.00      12.0107
      51     1 C    6   22.891266    5.685500   21.315133      4.00      12.0107
      52     1 C    6   25.099267    7.556452   18.874906      4.00      12.0107
      53     1 C    6   25.078418    7.547528   17.452994      4.00      12.0107
      54     1 C    6   24.381100    6.546515   16.704588      4.00      12.0107
      55     1 C    6   38.301805   31.929200   21.839251      4.00      12.0107
      56     1 C    6   37.570486   30.840220   21.130961      4.00      12.0107
      57     1 C    6   36.607857   31.144841   20.156320      4.00      12.0107
      58     1 C    6   35.988754   30.125252   19.438744      4.00      12.0107
      59     1 C    6   36.317812   28.775840   19.673569      4.00      12.0107
      60     1 C    6   37.250564   28.478635   20.685052      4.00      12.0107
      61     1 C    6   37.873453   29.496908   21.401927      4.00      12.0107
      62     1 C    6   35.715370   27.684934   18.875140      4.00      12.0107
      63     1 C    6   35.744726   27.702631   17.453680      4.00      12.0107
      64     1 C    6   36.447002   28.708134   16.717254      4.00      12.0107
      65     1 C    6   25.703476    8.617239   16.734280      4.00      12.0107
      66     1 C    6   25.692320    8.633203   19.546719      4.00      12.0107
      67     1 C    6   38.328648   31.962720   10.155994      4.00      12.0107
      68     1 C    6   37.606048   30.890964   10.897743      4.00      12.0107
      69     1 C    6   36.675982   31.201729   11.901540      4.00      12.0107
      70     1 C    6   36.064108   30.184632   12.631242      4.00      12.0107
      71     1 C    6   36.368428   28.831680   12.380681      4.00      12.0107
      72     1 C    6   37.276267   28.530913   11.346813      4.00      12.0107
      73     1 C    6   37.890072   29.544460   10.618165      4.00      12.0107
      74     1 C    6   35.759301   27.733529   13.164645      4.00      12.0107
      75     1 C    6   35.767185   27.727613   14.586605      4.00      12.0107
      76     1 C    6   36.457463   28.720265   15.350707      4.00      12.0107
      77     1 C    6   46.135758   26.620924   15.281444      4.00      12.0107
      78     1 C    6   46.087794   26.580067   12.473557      4.00      12.0107
      79     1 C    6   22.463234    3.255728   10.256535      4.00      12.0107
      80     1 C    6   23.163308    4.363688   10.976093      4.00      12.0107
      81     1 C    6   24.170535    4.075719   11.910917      4.00      12.0107
      82     1 C    6   24.804128    5.104459   12.604171      4.00      12.0107
      83     1 C    6   24.450710    6.451031   12.385541      4.00      12.0107
      84     1 C    6   23.466883    6.732381   11.418709      4.00      12.0107
      85     1 C    6   22.828913    5.703882   10.725676      4.00      12.0107
      86     1 C    6   25.083613    7.547952   13.160616      4.00      12.0107
      87     1 C    6   25.071355    7.542375   14.583453      4.00      12.0107
      88     1 C    6   24.375833    6.545263   15.337852      4.00      12.0107
      89     1 C    6   26.617552   17.858779   21.772715      4.00      12.0107
      90     1 C    6   25.310753   17.905885   21.048905      4.00      12.0107
      91     1 C    6   25.046320   18.907619   20.101228      4.00      12.0107
      92     1 C    6   23.833989   18.925636   19.414102      4.00      12.0107
      93     1 C    6   22.848242   17.946707   19.654071      4.00      12.0107
      94     1 C    6   23.107968   16.968568   20.632783      4.00      12.0107
      95     1 C    6   24.322702   16.944052   21.316371      4.00      12.0107
      96     1 C    6   21.575368   17.932124   18.889129      4.00      12.0107
      97     1 C    6   21.576505   17.913220   17.466632      4.00      12.0107
      98     1 C    6   22.782621   17.791665   16.706843      4.00      12.0107
      99     1 C    6   34.438136   17.196283   21.908188      4.00      12.0107
     100     1 C    6   35.730752   17.143709   21.164796      4.00      12.0107
     101     1 C    6   35.938146   16.168462   20.176757      4.00      12.0107
     102     1 C    6   37.117791   16.154141   19.438074      4.00      12.0107
     103     1 C    6   38.123397   17.113184   19.667920      4.00      12.0107
     104     1 C    6   37.919461   18.068560   20.681839      4.00      12.0107
     105     1 C    6   36.736555   18.088810   21.417378      4.00      12.0107
     106     1 C    6   39.376434   17.119051   18.878579      4.00      12.0107
     107     1 C    6   39.368508   17.122271   17.456523      4.00      12.0107
     108     1 C    6   38.159537   17.240209   16.701034      4.00      12.0107
     109     1 C    6   20.330343   17.931251   16.757283      4.00      12.0107
     110     1 C    6   20.350362   17.933482   19.570915      4.00      12.0107
     111     1 C    6   34.442356   17.236569   10.186986      4.00      12.0107
     112     1 C    6   35.743812   17.135119   10.907715      4.00      12.0107
     113     1 C    6   35.945077   16.159324   11.895256      4.00      12.0107
     114     1 C    6   37.134966   16.128316   12.618403      4.00      12.0107
     115     1 C    6   38.152012   17.072079   12.374475      4.00      12.0107
     116     1 C    6   37.956664   18.020341   11.352700      4.00      12.0107
     117     1 C    6   36.766379   18.056461   10.632642      4.00      12.0107
     118     1 C    6   39.401100   17.088365   13.168097      4.00      12.0107
[...]
 flops   261 x   261 x   256         393214030848       0.0%    100.0%      0.0%
 flops   256 x   265 x   288         422487982080       0.0%    100.0%      0.0%
 flops   256 x   288 x   265         422487982080       0.0%    100.0%      0.0%
 flops   265 x   256 x   288         422487982080       0.0%    100.0%      0.0%
 flops   265 x   288 x   256         422487982080       0.0%    100.0%      0.0%
 flops   288 x   256 x   265         422487982080       0.0%    100.0%      0.0%
 flops   288 x   265 x   256         422487982080       0.0%    100.0%      0.0%
 flops    13 x     9 x    13         424596720132       0.0%    100.0%      0.0%
 flops   256 x   261 x   288         433891344384       0.0%    100.0%      0.0%
 flops   256 x   288 x   261         433891344384       0.0%    100.0%      0.0%
 flops   261 x   256 x   288         433891344384       0.0%    100.0%      0.0%
 flops   261 x   288 x   256         433891344384       0.0%    100.0%      0.0%
 flops   288 x   256 x   261         433891344384       0.0%    100.0%      0.0%
 flops   288 x   261 x   256         433891344384       0.0%    100.0%      0.0%
 flops    26 x     5 x   256         523469107200       0.0%    100.0%      0.0%
 flops   288 x   288 x   288         527587540992       0.0%    100.0%      0.0%
 flops     5 x    26 x   256         527909990400       0.0%    100.0%      0.0%
 flops     5 x     5 x   256         650653440000       0.0%    100.0%      0.0%
 flops    26 x    13 x   261         655174795860       0.0%    100.0%      0.0%
 flops    13 x    26 x   261         658117748340       0.0%    100.0%      0.0%
 flops    26 x    13 x   265         665215788900       0.0%    100.0%      0.0%
 flops    13 x    26 x   265         668203844100       0.0%    100.0%      0.0%
 flops     5 x    13 x   261         726470785170       0.0%    100.0%      0.0%
 flops    13 x     5 x   261         732412572840       0.0%    100.0%      0.0%
 flops     5 x    13 x   265         737604437050       0.0%    100.0%      0.0%
 flops    13 x     5 x   265         743637286600       0.0%    100.0%      0.0%
 flops   256 x   256 x   265         751089745920       0.0%    100.0%      0.0%
 flops   256 x   265 x   256         751089745920       0.0%    100.0%      0.0%
 flops   265 x   256 x   256         751089745920       0.0%    100.0%      0.0%
 flops   256 x   256 x   261         771362390016       0.0%    100.0%      0.0%
 flops   256 x   261 x   256         771362390016       0.0%    100.0%      0.0%
 flops   261 x   256 x   256         771362390016       0.0%    100.0%      0.0%
 flops   288 x   288 x   256         937933406208       0.0%    100.0%      0.0%
 flops   256 x   288 x   288         937933406208       0.0%    100.0%      0.0%
 flops   288 x   256 x   288         937933406208       0.0%    100.0%      0.0%
 flops    26 x    13 x   288        1445902997760       0.0%    100.0%      0.0%
 flops    13 x    26 x   288        1452397789440       0.0%    100.0%      0.0%
 flops     5 x    13 x   288        1603245870720       0.0%    100.0%      0.0%
 flops    13 x     5 x   288        1616358781440       0.0%    100.0%      0.0%
 flops   256 x   256 x   288        1667437166592       0.0%    100.0%      0.0%
 flops   256 x   288 x   256        1667437166592       0.0%    100.0%      0.0%
 flops   288 x   256 x   256        1667437166592       0.0%    100.0%      0.0%
 flops   261 x   261 x  1551        2075077378440       0.0%    100.0%      0.0%
 flops   261 x   261 x  1556        2081766860640       0.0%    100.0%      0.0%
 flops   265 x   265 x  1551        2139168669000       0.0%    100.0%      0.0%
 flops   265 x   265 x  1556        2146064764000       0.0%    100.0%      0.0%
 flops   261 x   288 x  1551        2289740555520       0.0%    100.0%      0.0%
 flops   288 x   261 x  1551        2289740555520       0.0%    100.0%      0.0%
 flops   261 x   288 x  1556        2297122053120       0.0%    100.0%      0.0%
 flops   288 x   261 x  1556        2297122053120       0.0%    100.0%      0.0%
 flops   265 x   288 x  1551        2324832364800       0.0%    100.0%      0.0%
 flops   288 x   265 x  1551        2324832364800       0.0%    100.0%      0.0%
 flops   265 x   288 x  1556        2332326988800       0.0%    100.0%      0.0%
 flops   288 x   265 x  1556        2332326988800       0.0%    100.0%      0.0%
 flops    26 x    13 x   256        2570494218240       0.0%    100.0%      0.0%
 flops    13 x    26 x   256        2582040514560       0.0%    100.0%      0.0%
 flops    26 x    32 x    26        2761294947840       0.0%    100.0%      0.0%
 flops  1551 x   261 x   261        2802833640288       0.0%    100.0%      0.0%
 flops  1556 x   261 x   261        2811869209728       0.0%    100.0%      0.0%
 flops     5 x    13 x   256        2850214881280       0.0%    100.0%      0.0%
 flops    13 x     5 x   256        2873526722560       0.0%    100.0%      0.0%
 flops  1551 x   265 x   265        2889402568800       0.0%    100.0%      0.0%
 flops  1556 x   265 x   265        2898717212800       0.0%    100.0%      0.0%
 flops   256 x   256 x   256        2964332740608       0.0%    100.0%      0.0%
 flops  1551 x   288 x   261        3092781947904       0.0%    100.0%      0.0%
 flops  1551 x   261 x   288        3092781947904       0.0%    100.0%      0.0%
 flops  1556 x   261 x   288        3102752231424       0.0%    100.0%      0.0%
 flops  1556 x   288 x   261        3102752231424       0.0%    100.0%      0.0%
 flops    13 x    13 x   261        3131116180920       0.0%    100.0%      0.0%
 flops  1551 x   288 x   265        3140180904960       0.0%    100.0%      0.0%
 flops  1551 x   265 x   288        3140180904960       0.0%    100.0%      0.0%
 flops  1556 x   265 x   288        3150303989760       0.0%    100.0%      0.0%
 flops  1556 x   288 x   265        3150303989760       0.0%    100.0%      0.0%
 flops    13 x    13 x   265        3179102635800       0.0%    100.0%      0.0%
 flops   256 x   261 x  1551        4070649876480       0.0%    100.0%      0.0%
 flops   261 x   256 x  1551        4070649876480       0.0%    100.0%      0.0%
 flops   256 x   261 x  1556        4083772538880       0.0%    100.0%      0.0%
 flops   261 x   256 x  1556        4083772538880       0.0%    100.0%      0.0%
 flops   256 x   265 x  1551        4133035315200       0.0%    100.0%      0.0%
 flops   265 x   256 x  1551        4133035315200       0.0%    100.0%      0.0%
 flops   256 x   265 x  1556        4146359091200       0.0%    100.0%      0.0%
 flops   265 x   256 x  1556        4146359091200       0.0%    100.0%      0.0%
 flops    26 x    32 x     5        4372819925760       0.0%    100.0%      0.0%
 flops     5 x    32 x    26        4372819925760       0.0%    100.0%      0.0%
 flops   288 x   288 x  1551        5053220536320       0.0%    100.0%      0.0%
 flops   288 x   288 x  1556        5069510737920       0.0%    100.0%      0.0%
 flops     5 x    32 x     5        5331494361600       0.0%    100.0%      0.0%
 flops  1551 x   256 x   261        5498279018496       0.0%    100.0%      0.0%
 flops  1551 x   261 x   256        5498279018496       0.0%    100.0%      0.0%
 flops  1556 x   256 x   261        5516003966976       0.0%    100.0%      0.0%
 flops  1556 x   261 x   256        5516003966976       0.0%    100.0%      0.0%
 flops  1551 x   256 x   265        5582543831040       0.0%    100.0%      0.0%
 flops  1551 x   265 x   256        5582543831040       0.0%    100.0%      0.0%
 flops  1556 x   256 x   265        5600540426240       0.0%    100.0%      0.0%
 flops  1556 x   265 x   256        5600540426240       0.0%    100.0%      0.0%
 flops  1551 x   288 x   288        6825449816064       0.0%    100.0%      0.0%
 flops  1556 x   288 x   288        6847453200384       0.0%    100.0%      0.0%
 flops    13 x    13 x   288        6910049502720       0.0%    100.0%      0.0%
 flops   256 x   288 x  1551        8983503175680       0.0%    100.0%      0.0%
 flops   288 x   256 x  1551        8983503175680       0.0%    100.0%      0.0%
 flops   256 x   288 x  1556        9012463534080       0.0%    100.0%      0.0%
 flops   288 x   256 x  1556        9012463534080       0.0%    100.0%      0.0%
 flops  1551 x   261 x  1551       11080506122928       0.0%    100.0%      0.0%
 flops  1551 x   261 x  1556       11116226645568       0.0%    100.0%      0.0%
 flops  1556 x   261 x  1551       11116226645568       0.0%    100.0%      0.0%
 flops  1556 x   261 x  1556       11152062321408       0.0%    100.0%      0.0%
 flops  1551 x   265 x  1551       11250322308720       0.0%    100.0%      0.0%
 flops  1551 x   265 x  1556       11286590272320       0.0%    100.0%      0.0%
 flops  1556 x   265 x  1551       11286590272320       0.0%    100.0%      0.0%
 flops  1556 x   265 x  1556       11322975153920       0.0%    100.0%      0.0%
 flops  1551 x   288 x   256       12134133006336       0.0%    100.0%      0.0%
 flops  1551 x   256 x   288       12134133006336       0.0%    100.0%      0.0%
 flops  1556 x   256 x   288       12173250134016       0.0%    100.0%      0.0%
 flops  1556 x   288 x   256       12173250134016       0.0%    100.0%      0.0%
 flops    13 x    13 x   256       12284532449280       0.0%    100.0%      0.0%
 flops   256 x   256 x  1551       15970672312320       0.0%    100.0%      0.0%
 flops   256 x   256 x  1556       16022157393920       0.0%    100.0%      0.0%
 flops    13 x    32 x    26       21430049921280       0.0%    100.0%      0.0%
 flops    26 x    32 x    13       21430049921280       0.0%    100.0%      0.0%
 flops  1551 x   256 x   256       21571792011264       0.0%    100.0%      0.0%
 flops  1556 x   256 x   256       21641333571584       0.0%    100.0%      0.0%
 flops     5 x    32 x    13       23805771612480       0.0%    100.0%      0.0%
 flops    13 x    32 x     5       23805771612480       0.0%    100.0%      0.0%
 flops  1551 x   288 x  1551       24453530754048       0.0%    100.0%      0.0%
 flops  1551 x   288 x  1556       24532362252288       0.0%    100.0%      0.0%
 flops  1556 x   288 x  1551       24532362252288       0.0%    100.0%      0.0%
 flops  1556 x   288 x  1556       24611447881728       0.0%    100.0%      0.0%
 flops  1551 x   256 x  1551       43472943562752       0.0%    100.0%      0.0%
 flops  1551 x   256 x  1556       43613088448512       0.0%    100.0%      0.0%
 flops  1556 x   256 x  1551       43613088448512       0.0%    100.0%      0.0%
 flops  1556 x   256 x  1556       43753685123072       0.0%    100.0%      0.0%
 flops    13 x    32 x    13      101093364193536       0.0%    100.0%      0.0%
 flops inhomo. stacks                           0       0.0%      0.0%      0.0%
 flops total                       975.151216E+12       0.0%    100.0%      0.0%
 flops max/rank                     66.600846E+12       0.0%    100.0%      0.0%
 matmuls inhomo. stacks                         0       0.0%      0.0%      0.0%
 matmuls total                        28875047368       0.0%    100.0%      0.0%
 number of processed stacks              38096140       0.0%    100.0%      0.0%
 average stack size                                     0.0     758.0       0.0
 marketing flops                     1.752069E+15
 -------------------------------------------------------------------------------
 # multiplications                          51602
 max memory usage/rank               2.207474E+09
 # max total images/rank                        1
 # max 3D layers                                1
 # MPI messages exchanged                 4953792
 MPI messages size (bytes):
  total size                        16.024588E+12
  min size                           0.000000E+00
  max size                          19.369088E+06
  average size                       3.234812E+06
 MPI breakdown and total messages size (bytes):
             size <=      128               31944                        0
       128 < size <=     8192                   0                        0
      8192 < size <=    32768                   0                        0
     32768 < size <=   131072                2904                196571760
    131072 < size <=  4194304             4303536            9567959719488
   4194304 < size <= 16777216              403632            2368220868432
  16777216 < size                          211776            4088737630848
 -------------------------------------------------------------------------------
 -                                                                             -
 -                      DBCSR MESSAGE PASSING PERFORMANCE                      -
 -                                                                             -
 -------------------------------------------------------------------------------
 ROUTINE             CALLS      AVE VOLUME [Bytes]
 MP_Group             5102
 MP_Bcast              188                     12.
 MP_Allreduce       257671                     28.
 MP_Alltoall        220185                 667385.
 MP_Wait           2476896
 MP_ISend           824664                1269300.
 MP_IRecv           824664                1255596.
 MP_Memory         1998332
 -------------------------------------------------------------------------------

 MEMORY| Estimated peak process memory [MiB]                                2106

 -------------------------------------------------------------------------------
 ----                             MULTIGRID INFO                            ----
 -------------------------------------------------------------------------------
 count for grid        1:        1657680          cutoff [a.u.]          180.00
 count for grid        2:         393520          cutoff [a.u.]           60.00
 count for grid        3:         224320          cutoff [a.u.]           20.00
 count for grid        4:          22240          cutoff [a.u.]            6.67
 count for grid        5:            640          cutoff [a.u.]            2.22
 total gridlevel count  :        2298400

 -------------------------------------------------------------------------------
 -                                                                             -
 -                         MESSAGE PASSING PERFORMANCE                         -
 -                                                                             -
 -------------------------------------------------------------------------------

 ROUTINE             CALLS      AVE VOLUME [Bytes]
 MP_Group                6
 MP_Bcast             1235                6812744.
 MP_Allreduce           91                  18149.
 MP_Sync                 5
 -------------------------------------------------------------------------------


 -------------------------------------------------------------------------------
 -                                                                             -
 -                           R E F E R E N C E S                               -
 -                                                                             -
 -------------------------------------------------------------------------------
 
 CP2K version 7.1, the CP2K developers group (2019).
 CP2K is freely available from https://www.cp2k.org/ .

 Schuett, Ole; Messmer, Peter; Hutter, Juerg; VandeVondele, Joost. 
 Electronic Structure Calculations on Graphics Processing Units, John
 Wiley & Sons, Ltd, 173-190 (2016). 
 GPU-Accelerated Sparse Matrix-Matrix Multiplication for
 Linear Scaling Density Functional Theory.
 https://dx.doi.org/10.1002/9781118670712.ch8

 Borstnik, U; VandeVondele, J; Weber, V; Hutter, J. 
 PARALLEL COMPUTING, 40 (5-6), 47-58 (2014). 
 Sparse matrix multiplication: The distributed block-compressed sparse
 row library.
 https://dx.doi.org/10.1016/j.parco.2014.03.012

 Hutter, J; Iannuzzi, M; Schiffmann, F; VandeVondele, J. 
 WIREs Comput Mol Sci., 4 (1), 15-25 (2014). 
 CP2K: atomistic simulations of condensed matter systems.
 https://dx.doi.org/10.1002/wcms.1159

 Grimme, S; Ehrlich, S; Goerigk, L. 
 JOURNAL OF COMPUTATIONAL CHEMISTRY, 32, 1456 (2011). 
 Effect of the damping function in dispersion corrected density functional theory.
 https://dx.doi.org/10.1002/jcc.21759

 Grimme, S; Antony, J; Ehrlich, S; Krieg, H. 
 JOURNAL OF CHEMICAL PHYSICS, 132 (15), 154104 (2010). 
 A consistent and accurate ab initio parametrization of density
 functional dispersion correction (DFT-D) for the 94 elements H-Pu.
 https://dx.doi.org/10.1063/1.3382344

 VandeVondele, J; Hutter, J. 
 JOURNAL OF CHEMICAL PHYSICS, 127 (11), 114105 (2007). 
 Gaussian basis sets for accurate calculations on molecular systems in
 gas and condensed phases.
 https://dx.doi.org/10.1063/1.2770708

 Krack, M. 
 THEORETICAL CHEMISTRY ACCOUNTS, 114 (1-3), 145-152 (2005). 
 Pseudopotentials for H to Kr optimized for gradient-corrected
 exchange-correlation functionals.
 https://dx.doi.org/10.1007/s00214-005-0655-y

 VandeVondele, J; Krack, M; Mohamed, F; Parrinello, M; Chassaing, T;
 Hutter, J. COMPUTER PHYSICS COMMUNICATIONS, 167 (2), 103-128 (2005). 
 QUICKSTEP: Fast and accurate density functional calculations using a
 mixed Gaussian and plane waves approach.
 https://dx.doi.org/10.1016/j.cpc.2004.12.014

 Frigo, M; Johnson, SG. 
 PROCEEDINGS OF THE IEEE, 93 (2), 216-231 (2005). 
 The design and implementation of FFTW3.
 https://dx.doi.org/10.1109/JPROC.2004.840301

 Kolafa, J. 
 JOURNAL OF COMPUTATIONAL CHEMISTRY, 25 (3), 335-342 (2004). 
 Time-reversible always stable predictor-corrector method for molecular dynamics of polarizable molecules.
 https://dx.doi.org/10.1002/jcc.10385

 VandeVondele, J; Hutter, J. 
 JOURNAL OF CHEMICAL PHYSICS, 118 (10), 4365-4369 (2003). 
 An efficient orbital transformation method for electronic structure
 calculations.
 https://dx.doi.org/10.1063/1.1543154

 Hartwigsen, C; Goedecker, S; Hutter, J. 
 PHYSICAL REVIEW B, 58 (7), 3641-3662 (1998). 
 Relativistic separable dual-space Gaussian pseudopotentials from H to Rn.
 https://dx.doi.org/10.1103/PhysRevB.58.3641

 Lippert, G; Hutter, J; Parrinello, M. 
 MOLECULAR PHYSICS, 92 (3), 477-487 (1997). 
 A hybrid Gaussian and plane wave density functional scheme.
 https://dx.doi.org/10.1080/002689797170220

 Perdew, JP; Burke, K; Ernzerhof, M. 
 PHYSICAL REVIEW LETTERS, 77 (18), 3865-3868 (1996). 
 Generalized gradient approximation made simple.
 https://dx.doi.org/10.1103/PhysRevLett.77.3865

 Goedecker, S; Teter, M; Hutter, J. 
 PHYSICAL REVIEW B, 54 (3), 1703-1710 (1996). 
 Separable dual-space Gaussian pseudopotentials.
 https://dx.doi.org/10.1103/PhysRevB.54.1703


 -------------------------------------------------------------------------------
 -                                                                             -
 -                                T I M I N G                                  -
 -                                                                             -
 -------------------------------------------------------------------------------
 SUBROUTINE                       CALLS  ASD         SELF TIME        TOTAL TIME
                                MAXIMUM       AVERAGE  MAXIMUM  AVERAGE  MAXIMUM
 CP2K                                 1  1.0     0.01     0.01 68356.31 68356.61
 vb_anal                              1  2.0 68351.95 68352.24 68354.14 68354.44
 -------------------------------------------------------------------------------

 The number of warnings for this run is : 0
 
 -------------------------------------------------------------------------------
  **** **** ******  **  PROGRAM ENDED AT                 2021-11-22 08:58:04.384
 ***** ** ***  *** **   PROGRAM RAN ON             node1850.palmetto.clemson.edu
 **    ****   ******    PROGRAM RAN BY                                   svicchi
 ***** **    ** ** **   PROGRAM PROCESS ID                               3212744
  **** **  *******  **  PROGRAM STOPPED IN  /scratch2/svicchi/CP2K-4052809.pbs02
