     562
 i =      179, E =     -4678.9202822269
  C        11.8585842212       14.0533121752        5.7415795835
  C        12.4559376954       12.8903723483        5.0232497630
  C        11.7042122564       12.1715780435        4.0815031847
  C        12.2804986134       11.1093379667        3.3891434107
  C        13.6210160625       10.7393369740        3.6169474172
  C        14.3541977297       11.4427511063        4.5905283827
  C        13.7813847260       12.5077337543        5.2820797801
  C        14.2604019655        9.6485753099        2.8435725921
  C        14.2554575745        9.6563860360        1.4218705860
  C        13.7422771509       10.7584778524        0.6679327692
  C        49.1265460924       21.2334795296        5.8797781196
  C        48.5496541359       22.4013004444        5.1527268160
  C        49.2996432692       23.0685373540        4.1716238713
  C        48.7326705373       24.1075855969        3.4383512838
  C        47.4021415791       24.5092641097        3.6670070486
  C        46.6712687232       23.8605389335        4.6806873550
  C        47.2337519048       22.8157074966        5.4101148626
  C        46.7719015584       25.5869038726        2.8696837676
  C        46.7609811716       25.5572658046        1.4479233155
  C        47.2609445598       24.4421814802        0.7044328340
  C        14.8591994001        8.5699601546        0.7085703673
  C        14.8913415593        8.5966844835        3.5201689148
  C        49.1129790218       21.2035110713       10.1453351103
  C        48.5276147247       22.3648725644       10.8723743578
  C        49.2667271257       23.0253438768       11.8655461091
  C        48.6903950801       24.0598946821       12.5969856866
  C        47.3600997664       24.4569120465       12.3584861063
  C        46.6398573274       23.8123182614       11.3346327972
  C        47.2134105294       22.7764235981       10.6028503405
  C        46.7216090729       25.5317840319       13.1495648560
  C        46.7332608349       25.5280776774       14.5712693440
  C        47.2487326126       24.4288892434       15.3276677963
  C        40.6186174147       17.1101743141       15.3225455303
  C        40.6349188300       17.1573794149       12.5120571416
  C        11.8827350370       14.0863427312       10.2854819448
  C        12.4716930069       12.9103202559       10.9895385982
  C        11.7141146848       12.1775561221       11.9159615437
  C        12.2804173236       11.0949581373       12.5843683170
  C        13.6190300115       10.7206005392       12.3522838406
  C        14.3569886909       11.4356676145       11.3910804953
  C        13.7918579447       12.5169733453       10.7183721472
  C        14.2524492257        9.6237995950       13.1227500715
  C        14.2512292835        9.6438386803       14.5445926859
  C        13.7415596239       10.7528746656       15.2916773515
  C        22.5059198633        3.2425076222        5.7485729191
  C        23.2088034180        4.3456180596        5.0365465472
  C        24.2080234473        4.0630782987        4.0937381806
  C        24.8288623462        5.1005869202        3.4037565759
  C        24.4643916582        6.4413356234        3.6365580715
  C        23.4897164727        6.7155686847        4.6130044141
  C        22.8652602064        5.6800433527        5.3023348092
  C        25.0721486682        7.5464525309        2.8628482039
  C        25.0655552235        7.5358553724        1.4418283470
  C        24.3751982706        6.5334632950        0.6896110831
  C        38.2989630624       31.9263263522        5.8489819327
  C        37.5605982594       30.8369314416        5.1429871547
  C        36.5969213953       31.1432105738        4.1692693410
  C        35.9680818875       30.1256246460        3.4559419024
  C        36.2860478667       28.7733662471        3.6920722688
  C        37.2203097780       28.4746423641        4.7023900818
  C        37.8532889876       29.4911970561        5.4150255768
  C        35.6743984463       27.6840517277        2.8934340811
  C        35.7118713841       27.6972815100        1.4710795689
  C        36.4228113243       28.6974015252        0.7355852793
  C        25.6965252729        8.6057328454        0.7290105722
  C        25.6540713298        8.6250453530        3.5397459387
  C        38.3278625626       31.9598640570       10.1585835973
  C        37.6055634440       30.8862785200       10.9028035562
  C        36.6764427298       31.1952660637       11.9085145418
  C        36.0623359078       30.1779118152       12.6373514008
  C        36.3613325919       28.8234792529       12.3856917452
  C        37.2695843054       28.5246562635       11.3509918672
  C        37.8858795251       29.5386163441       10.6233669816
  C        35.7463792374       27.7246145425       13.1682749148
  C        35.7488594301       27.7179314641       14.5912964342
  C        36.4397081426       28.7078182272       15.3586590304
  C        46.1352369441       26.6207129936       15.2813925460
  C        46.0876179511       26.5801199740       12.4735116720
  C        22.4656998426        3.2544520416       10.2524940966
  C        23.1726979412        4.3606518147       10.9648169307
  C        24.1841794608        4.0698780998       11.8940456971
  C        24.8228013218        5.0974059126       12.5835472561
  C        24.4691738244        6.4438871869       12.3662639396
  C        23.4825564623        6.7280969518       11.4035950469
  C        22.8396905703        5.7008712808       10.7138372189
  C        25.1016159213        7.5381276337       13.1435476064
  C        25.0807920259        7.5312328756       14.5655162619
  C        24.3795627672        6.5332316199       15.3132223058
  C        26.5576315590       17.8243518804        5.7822415299
  C        25.2551946804       17.8885069649        5.0609799686
  C        25.0051735903       18.8977027620        4.1183382372
  C        23.7974160737       18.9269826021        3.4258948256
  C        22.8084003734       17.9502164016        3.6559358916
  C        23.0531678519       16.9652451727        4.6308880783
  C        24.2621400131       16.9309880178        5.3218235751
  C        21.5437612970       17.9425345025        2.8831766869
  C        21.5534556228       17.9335835948        1.4613072687
  C        22.7641473673       17.8205588166        0.7072926533
  C        34.4193149791       17.2151360228        5.9139142486
  C        35.7150537001       17.1478831594        5.1776503134
  C        35.9071122829       16.1857066754        4.1739065936
  C        37.0903899190       16.1611394151        3.4405866741
  C        38.1126217421       17.0983476286        3.6885408646
  C        37.9228018220       18.0392523420        4.7190511954
  C        36.7379651870       18.0686716175        5.4510002827
  C        39.3666052728       17.1027522789        2.8999590526
  C        39.3617974360       17.1207203844        1.4775683358
  C        38.1547935565       17.2475376735        0.7203992842
  C        20.3101770670       17.9532044920        0.7482744318
  C        20.3177013365       17.9362318382        3.5605900678
  C        34.4341198436       17.2203961603       10.2113400773
  C        35.7391286378       17.1450611398       10.9271283880
  C        35.9742933245       16.1525416143       11.8915103424
  C        37.1650073344       16.1410673693       12.6125542608
  C        38.1536301644       17.1188016227       12.3871745867
  C        37.9271346134       18.0841980762       11.3880994415
  C        36.7335582193       18.1024042622       10.6711666002
  C        39.4044388770       17.1392742542       13.1786063571
  C        39.3810816693       17.1395249420       14.6001161487
  C        38.1639579770       17.2539820348       15.3434228943
  C        35.1134470908       26.6396287500       15.2932540398
  C        35.1559495454       26.6543139672       12.4833609252
  C        26.5613600818       17.8250584085       10.3222001955
  C        25.2504764459       17.8743670651       11.0278296422
  C        24.9697292198       18.9087555452       11.9333216362
  C        23.7525445253       18.9365342944       12.6075403958
  C        22.7877977432       17.9325400730       12.3951283178
  C        23.0614449866       16.9225301591       11.4554764575
  C        24.2800765449       16.8908222523       10.7815070258
  C        21.5225402530       17.9219565458       13.1643843401
  C        21.5419432869       17.9228844566       14.5851799035
  C        22.7586787470       17.8159994986       15.3307863918
  C        14.0452624275       17.8318125844       10.2838706128
  C        15.3515913800       17.8959064462       11.0007109128
  C        15.6121382504       18.9109823356       11.9339854208
  C        16.8227206721       18.9367043372       12.6225184595
  C        17.8035510583       17.9499188348       12.3986486787
  C        17.5489720487       16.9603540227       11.4310149737
  C        16.3380478175       16.9303973678       10.7436355283
  C        19.0691951080       17.9341081741       13.1694995294
  C        19.0607972247       17.9355231005       14.5910028359
  C        17.8492870273       17.8383794358       15.3453497052
  C        46.8028549403       17.2194451344       10.1599379170
  C        45.5114786816       17.1589111680       10.9063494447
  C        45.3020717715       16.1800791300       11.8903794513
  C        44.1194276557       16.1624391160       12.6258341900
  C        43.1145128120       17.1240402552       12.4008718098
  C        43.3215381581       18.0829325788       11.3904973408
  C        44.5046817578       18.1040444023       10.6555677569
  C        41.8601679650       17.1349851871       13.1899300744
  C        41.8651866272       17.1253738125       14.6125789935
  C        43.0741644256       17.2137261043       15.3721954952
  C        20.3039917830       17.9471154401       15.3042763826
  C        20.2948870126       17.9072660742       12.4917545130
  C        46.7833852354       17.2303632511        5.8891578976
  C        45.4786455765       17.1206041111        5.1750516267
  C        45.2602900500       16.1189118153        4.2168662965
  C        44.0710693508       16.0870428907        3.4922275508
  C        43.0696329016       17.0535609735        3.7086182542
  C        43.2782955875       18.0248932517        4.7056791198
  C        44.4687704269       18.0632466253        5.4251920394
  C        41.8222100078       17.0728308532        2.9118549838
  C        41.8460762669       17.0915436263        1.4906588649
  C        43.0649567344       17.1952815347        0.7489707757
  C        46.1529095168       26.6370931743        0.7261483949
  C        46.1619028274       26.6560147734        3.5357844254
  C        14.0395671925       17.8287189551        5.7064597268
  C        15.3529222240       17.8991472036        5.0061243480
  C        15.6208841306       18.9217656360        4.0842647852
  C        16.8444072185       18.9605469990        3.4209388082
  C        17.8241086835       17.9756650824        3.6554764542
  C        17.5617333393       16.9789769623        4.6124170388
  C        16.3404235805       16.9399074416        5.2796798003
  C        19.0899028022       17.9588969857        2.8879391853
  C        19.0717346660       17.9473738042        1.4670830523
  C        17.8547468882       17.8434551360        0.7215320533
  C        28.8080625671       14.0833998067       10.3623777832
  C        28.2137961877       12.9060731609       11.0527493734
  C        28.9422725297       12.1835361293       12.0091385366
  C        28.3521134106       11.1071786728       12.6672400449
  C        27.0216239781       10.7310672910       12.3920945709
  C        26.3166565481       11.4345943481       11.3988186920
  C        26.9030563947       12.5109491979       10.7399271888
  C        26.3553592145        9.6494931433       13.1524775880
  C        26.3286787327        9.6769452367       14.5731032905
  C        26.8232370392       10.7909516306       15.3230749862
  C        32.1761275082       21.2416383916       10.1057267254
  C        32.7614242820       22.4059830366       10.8342985506
  C        32.0136477449       23.0666220544       11.8220167090
  C        32.5809563078       24.1019299772       12.5604408236
  C        33.9109913401       24.5079407504       12.3334437654
  C        34.6400791071       23.8646340000       11.3144305779
  C        34.0770585080       22.8231114784       10.5789462596
  C        34.5373362613       25.5832418074       13.1395301951
  C        34.5258674600       25.5545926783       14.5621589397
  C        34.0210276284       24.4374210475       15.2995632759
  C        25.7104598799        8.5991434732       15.2851006033
  C        25.7243569324        8.5988472858       12.4733466474
  C        32.0869411050       21.1664310430        5.8361530654
  C        32.6523798795       22.3400291770        5.1063877903
  C        31.9274893513       22.9766516439        4.0870982980
  C        32.4973867140       24.0261237529        3.3683155828
  C        33.8079438761       24.4661881387        3.6436348891
  C        34.5121758696       23.8433359038        4.6926221572
  C        33.9463070902       22.7934617703        5.4106116285
  C        34.4501306780       25.5517276240        2.8643683848
  C        34.4811667234       25.5388232683        1.4414564807
  C        33.9994390726       24.4299729078        0.6764588888
  C        40.6082540306       17.0962190904        0.7677078231
  C        40.5915201661       17.0954035306        3.5776456926
  C        28.6622475542       14.0599661250        5.8183360779
  C        28.0589047727       12.9151176334        5.0791733520
  C        28.8134332399       12.2046609204        4.1330153765
  C        28.2411927290       11.1496068808        3.4284948060
  C        26.9002270877       10.7779951712        3.6482307304
  C        26.1620667828       11.4738924071        4.6235075257
  C        26.7323148086       12.5312997926        5.3289683070
  C        26.2725759871        9.6863304844        2.8683665036
  C        26.2880072577        9.6958156646        1.4472318579
  C        26.8016709436       10.8011240178        0.6988643808
  C        18.1352145028        3.1808494539       10.3171030580
  C        17.4055582727        4.2779495971       11.0156384041
  C        16.3896300357        3.9993310450       11.9428424717
  C        15.7416369071        5.0391134437       12.6063966024
  C        16.0934495689        6.3828927575       12.3669512336
  C        17.0830564592        6.6527232381       11.4035099990
  C        17.7323859762        5.6155447367       10.7384129302
  C        15.4688981448        7.4904565638       13.1300368662
  C        15.4841628682        7.4898078746       14.5517551838
  C        16.1858144805        6.4962459437       15.3048997885
  C        42.9457239638       31.8595018626       10.0727320118
  C        43.6460590266       30.7717495943       10.8166900553
  C        44.5916761982       31.0930684514       11.8026734825
  C        45.1973234414       30.0875253713       12.5503869856
  C        44.8707620020       28.7344943789       12.3356078088
  C        43.9448565257       28.4201456631       11.3224845975
  C        43.3360878090       29.4252892408       10.5743987233
  C        45.4883713051       27.6552073113       13.1387774184
  C        45.4924554647       27.6807888731       14.5604671468
  C        44.8054002952       28.6888712842       15.3070696929
  C        14.8552540964        8.5623300707       15.2641341408
  C        14.8735987134        8.5622146751       12.4514648961
  C        42.9463423241       31.9615740428        5.8089862002
  C        43.6914831494       30.8853683684        5.0954620677
  C        44.6562767572       31.1912566571        4.1233673072
  C        45.2777151503       30.1716606675        3.4055727304
  C        44.9535946888       28.8213935248        3.6429670750
  C        44.0198389822       28.5237224975        4.6534810449
  C        43.3916687106       29.5405108965        5.3657163499
  C        45.5625972612       27.7239755598        2.8577068869
  C        45.5329506700       27.7172739401        1.4364127434
  C        44.8266293982       28.7075055281        0.6834636327
  C        35.0925396320       26.6305888464        0.7394484008
  C        35.0585634575       26.6118341048        3.5502059307
  C        18.1485038315        3.2467788891        5.7065981796
  C        17.4297853448        4.3435786471        4.9972401575
  C        16.4144631973        4.0522266223        4.0738256641
  C        15.7660259148        5.0828116252        3.3984675685
  C        16.1206955082        6.4280721554        3.6210026937
  C        17.1122511592        6.7115278113        4.5780486465
  C        17.7600184606        5.6826744874        5.2578233297
  C        15.4900305082        7.5236873851        2.8485593893
  C        15.4956136713        7.5069446053        1.4274204797
  C        16.1922410622        6.5051610200        0.6807121887
  H        10.6721535627       12.4658818446        3.9043740192
  H        11.6941901086       10.5509356153        2.6625634855
  H        15.3911745325       11.1680088208        4.7723342143
  H        14.3508811301       13.0708090924        6.0176045232
  H        13.3755183121       11.6307278269        1.2012053116
  H        50.3223372326       22.7484793954        3.9868405168
  H        49.3191122436       24.6227926044        2.6806981553
  H        45.6418147257       24.1614065465        4.8639293647
  H        46.6627852620       22.2905820049        6.1723202408
  H        47.6295149996       23.5758147685        1.2461136230
  H        14.8719225326        8.5880356511        4.6084782903
  H        50.2866752945       22.7023053696       12.0606520509
  H        49.2686986556       24.5752052356       13.3606501569
  H        45.6106059610       24.1098875300       11.1452630263
  H        46.6527416330       22.2545432488        9.8309861368
  H        47.6075529858       23.5517677313       14.7968037571
  H        40.6399123286       17.1325680351       11.4239572656
  H        48.6870604656       14.0950862254        7.7999730024
  H        10.6808043618       12.4670594783       12.0935858489
  H        11.6885780839       10.5248822235       13.2972808356
  H        15.3922591975       11.1573330792       11.2049102467
  H        14.3642719118       13.0859298962        9.9895797576
  H        13.3748509047       11.6215526398       14.7530624933
  H        47.9300757655       14.2183672414        9.7110209278
  H        47.7800281002       14.3740833934        6.4953663735
  H        49.0831895223       18.5524738498       10.8673330822
  H        10.4159624249       14.1343192374        7.9988613279
  H        24.4768202868        3.0245523481        3.9140484212
  H        25.6063045854        4.8830814401        2.6746105210
  H        23.2010012820        7.7483662389        4.7966122844
  H        22.0921563442        5.8805392232        6.0400007746
  H        23.8098148305        5.7759889800        1.2246405447
  H        36.3646417358       32.1872825413        3.9728571419
  H        35.2216699049       30.3704400162        2.7033918906
  H        37.4757781288       27.4345119082        4.8943212320
  H        38.5991602990       29.2644784892        6.1733341637
  H        36.9864529648       29.4470539874        1.2833198334
  H        25.6723563082        8.6114619343        4.6279689509
  H        36.4550822351       32.2396863463       12.1165767349
  H        35.3362131583       30.4261103311       13.4083308104
  H        37.5147574441       27.4841794152       11.1481870898
  H        38.6082316353       29.3098437273        9.8434896837
  H        37.0174821191       29.4650240665       14.8364471400
  H        46.1090694859       26.5876174469       11.3854792856
  H        44.6682022769       35.1161646570        7.8141388571
  H        24.4589253144        3.0303811520       12.0580235068
  H        25.6090789883        4.8663287979       13.2990694849
  H        23.1992548375        7.7638361547       11.2276653707
  H        22.0613236267        5.9162253579        9.9854518346
  H        23.8166386869        5.7762325551       14.7750601932
  H        44.9534845082       34.3898069231        9.6947012639
  H        44.9018231662       34.2067930796        6.4907589031
  H        40.6653797182       33.2084698206       10.8528687629
  H        23.1500957451        1.9577733455        8.0031955194
  H        25.7670010190       19.6539389067        3.9437599173
  H        23.6048638602       19.7136449086        2.6996121395
  H        22.2978219602       16.2038762752        4.8142467418
  H        24.4670387770       16.1573828240        6.0580925687
  H        23.7035576747       17.7039238970        1.2400719332
  H        35.1100945876       15.4730339305        3.9743790416
  H        37.2371127158       15.4076067977        2.6699271757
  H        38.7028521786       18.7719411740        4.9153359009
  H        36.5756135162       18.8120649138        6.2280357705
  H        37.2150866672       17.3727456663        1.2509201887
  H        20.3197351039       17.9658999950        4.6487059598
  H        35.2120804915       15.3977082510       12.0704108513
  H        37.3439136816       15.3692607191       13.3579714433
  H        38.6836904609       18.8451353794       11.2078098612
  H        36.5384496953       18.8655740425        9.9213271766
  H        37.2307998195       17.3828865594       14.8024822690
  H        35.1319874041       26.6815226219       11.3955545970
  H        28.5032454874       21.0856931645        7.7912855979
  H        25.7148698740       19.6852159830       12.0902518025
  H        23.5337788327       19.7397625419       13.3078416604
  H        22.3226812509       16.1415087716       11.2880069789
  H        24.5094147967       16.1000392978       10.0712558675
  H        23.6938134457       17.6970721699       14.7912777576
  H        28.9585950099       21.7323513901        9.6910118367
  H        29.2117483170       21.6885339726        6.4675098641
  H        32.2434434932       18.6934442675       10.8266412897
  H        27.3680093686       19.0278600774        8.0257621489
  H        14.8551674224       19.6731340212       12.1046757760
  H        17.0235718645       19.7278076783       13.3417638902
  H        18.2981634684       16.1921290318       11.2509420184
  H        16.1265589758       16.1538168643       10.0125248815
  H        16.9093826526       17.7259160059       14.8129269335
  H        46.0832149691       15.4456307708       12.0723276365
  H        43.9594838019       15.3945594274       13.3795718134
  H        42.5556490987       18.8347221936       11.2112737687
  H        44.6788427014       18.8591607791        9.8925473271
  H        44.0160989958       17.3293340016       14.8436770714
  H        20.2935153508       17.9285362214       11.4034404906
  H        46.0385275192       15.3797816245        4.0408125505
  H        43.9057546382       15.3096461451        2.7494164948
  H        42.5106223925       18.7760095648        4.8797214079
  H        44.6503091196       18.8326232596        6.1716870231
  H        44.0000375844       17.2952826887        1.2925051404
  H        46.1987137932       26.6826044991        4.6232305366
  H        52.7412381747       21.0627001395        8.1946464279
  H        14.8611286764       19.6795571970        3.9064808287
  H        17.0552829452       19.7566017587        2.7101145026
  H        18.3116103685       16.2126381699        4.7973822150
  H        16.1200615675       16.1600488956        6.0045304123
  H        16.9188991975       17.7348203172        1.2615124583
  H        52.3226157295       21.6737820411        6.2946971796
  H        52.0136029557       21.7026382330        9.4954894212
  H        49.0671893625       18.6078322943        5.2042933358
  H        13.2472440482       19.0163335126        7.9760350296
  H        29.9649697753       12.4850166535       12.2251519029
  H        28.9164631556       10.5460227162       13.4088627573
  H        25.2887500728       11.1532301504       11.1797541767
  H        26.3555744044       13.0762641277        9.9898743933
  H        27.1927434578       11.6603514650       14.7873888836
  H        30.9923973396       22.7421133150       12.0081986236
  H        31.9942105732       24.6108411915       13.3220714371
  H        35.6693172795       24.1662637092       11.1309385970
  H        34.6489084305       22.3037999825        9.8133009471
  H        33.6756705411       23.5638535508       14.7539627364
  H        25.7624582513        8.5803438505       11.3855905763
  H        30.9232774961       22.6257997140        3.8594718250
  H        31.9261162112       24.5191933509        2.5848724233
  H        35.5265955127       24.1686781703        4.9138355180
  H        34.4994355331       22.2922563798        6.2013015362
  H        33.6384176161       23.5498359299        1.2009753656
  H        40.5858488169       17.0552981656        4.6652457002
  H        32.5183397744       14.1509173214        8.1636392226
  H        29.8503342325       12.4885968130        3.9694640345
  H        28.8314451513       10.5947213071        2.7025499306
  H        25.1243215221       11.1971829502        4.7977508538
  H        26.1606618085       13.0864813286        6.0689011931
  H        27.1535347585       11.6782291296        1.2343971764
  H        33.2936151782       14.2393998577        6.3601857116
  H        33.4123452960       14.3506636812        9.5370883761
  H        32.0828695602       18.4807269755        5.0975910063
  H        30.1941425090       14.1376272978        8.0785115752
  H        16.1176972198        2.9627582684       12.1290445633
  H        14.9520461645        4.8195275891       13.3218387850
  H        17.3654846043        7.6856532994       11.2106813852
  H        18.5146265337        5.8183978971       10.0108366599
  H        16.7523156149        5.7388846576       14.7713704330
  H        44.8279919903       32.1401518359       11.9768021598
  H        45.9372480505       30.3412621856       13.3062794626
  H        43.6820549391       27.3780865846       11.1524727484
  H        42.5993504305       29.1899990274        9.8098288900
  H        44.2300739912       29.4366342671       14.7687278458
  H        14.8498811122        8.5454587149       11.3632428612
  H        44.9000558413       32.2339281524        3.9321566486
  H        46.0247700758       30.4128448809        2.6524679068
  H        43.7625466093       27.4840202072        4.8447574288
  H        42.6449372371       29.3177821914        6.1239592410
  H        44.2681490418       29.4704126693        1.2180549698
  H        35.0084869587       26.6264607924        4.6373970510
  H        36.6052361671       35.1337821061        8.1807154998
  H        16.1433251852        3.0126375617        3.9042545890
  H        14.9735819780        4.8558841395        2.6885411733
  H        17.3958411901        7.7469994153        4.7547716004
  H        18.5429094440        5.8932109673        5.9825448726
  H        16.7637973742        5.7549948263        1.2191209888
  H        36.2789062654       34.4820088341        6.2731960479
  H        36.3807544103       34.2091330911        9.4998977921
  H        40.5791250567       33.2020762346        5.1540872943
  H        17.4708757309        1.9470835336        7.9740859041
  H        28.6717614506       18.9431654190       12.2363259204
  H        28.7386408941       18.7487304486        3.6876994637
  H        30.7098613503       15.3657143119        3.8339774671
  H        32.5332043061       16.2549061961       12.2025540680
  H        18.8535728786        0.8689934978       12.3351450780
  H        40.5282666710       35.2289512129        3.9521805275
  H        42.3234196503       34.4186671196        3.5904747389
  H        22.0873889754        0.6922017160       12.3515561028
  H        11.5966148499       18.7129135947       12.3827243308
  H        52.2651899896       18.4311748648        3.6778909270
  H        49.2550935836       16.4766086785        3.5841733222
  H        10.1503935363       15.7982609782       12.2924006921
  H        50.8501966251       17.6928217933        3.9539770168
  H        10.0460990853       17.3947425537       12.0519016015
  H        20.2148756223        0.0020504098       12.0419736126
  H        39.1835578328       36.1241702362        3.6863124790
 Ni        30.5248043355       17.4263208849        2.5841256802
 Ni        31.1113954581       16.3537648557       -1.4206730310
 Ni        30.2634581774       17.4844369146        0.2536814755
 Ni        30.6923926044       17.7190265230       12.7445446026
  O        10.6498262568       14.3652161751        5.4857766303
  O        12.6130125359       14.6574159754        6.5838323728
  O        49.1476523368       16.8459206214        7.9896981269
  O        50.3500395444       20.9363804435        5.6482721390
  O        48.3484339567       20.5932639963        6.6659644979
  O        11.0509403521       17.0541182656        6.5006839268
  O        50.3207317227       20.8816873402       10.4068675940
  O        48.3466259213       20.5867024697        9.3270649860
  O        49.5433470549       18.2484017514       10.0683355226
  O        12.3587722519       18.6246947325        7.9996618134
  O        48.6931675597       14.1485894739        6.7512913909
  O         8.2097772307       14.2105452028        9.3226790813
  O        10.7351820936       14.5068313198       10.6643486190
  O        12.5717274437       14.5826799985        9.3286044482