     560
 i =      175, E =     -4677.7381939245
  C        11.8585422573       14.0533949030        5.7415563162
  C        12.4558804348       12.8903565278        5.0233373422
  C        11.7042521374       12.1717414844        4.0813764793
  C        12.2805280755       11.1094860044        3.3890249059
  C        13.6209686842       10.7392977334        3.6169883453
  C        14.3540349200       11.4425259979        4.5907998710
  C        13.7812393704       12.5075242714        5.2823443768
  C        14.2604092706        9.6485986585        2.8435679197
  C        14.2555247714        9.6564252380        1.4218594982
  C        13.7423615252       10.7585230281        0.6679156819
  C        49.1265988325       21.2333754806        5.8797227262
  C        48.5497750635       22.4012242681        5.1526914243
  C        49.2997660254       23.0684686560        4.1715954742
  C        48.7328123518       24.1075575341        3.4383681676
  C        47.4022888343       24.5092393881        3.6670314509
  C        46.6713960100       23.8604746032        4.6806643460
  C        47.2338503885       22.8155976199        5.4100468581
  C        46.7720600617       25.5869019090        2.8697363919
  C        46.7610758743       25.5572475482        1.4479843813
  C        47.2609893262       24.4421421219        0.7045023596
  C        14.8593655725        8.5700334122        0.7085851252
  C        14.8912850301        8.5966812351        3.5201961808
  C        49.1128801366       21.2034342025       10.1453077614
  C        48.5274864586       22.3647436180       10.8724036649
  C        49.2666269404       23.0252693567       11.8655204779
  C        48.6902982251       24.0598087550       12.5969772351
  C        47.3599447795       24.4567302141       12.3585989393
  C        46.6396592290       23.8120535452       11.3348232798
  C        47.2132142005       22.7761692060       10.6030173395
  C        46.7215050651       25.5316792174       13.1496313924
  C        46.7332629517       25.5280191375       14.5713383511
  C        47.2486894354       24.4288091738       15.3277402437
  C        40.6171344210       17.0796968112       15.3170584114
  C        40.6362437224       17.1304407158       12.5065943953
  C        11.8827945196       14.0863078719       10.2854429003
  C        12.4717550794       12.9102630863       10.9894743510
  C        11.7142130345       12.1775544232       11.9159690551
  C        12.2805241261       11.0949707258       12.5843974975
  C        13.6191094123       10.7205767722       12.3522329188
  C        14.3570148704       11.4355266824       11.3908978278
  C        13.7918615099       12.5168135995       10.7181799784
  C        14.2525726766        9.6238277760       13.1227345332
  C        14.2513680541        9.6438856939       14.5445806887
  C        13.7416619385       10.7529063617       15.2916589266
  C        22.5064015854        3.2428543082        5.7483637903
  C        23.2097170436        4.3461409338        5.0363301084
  C        24.2088751480        4.0637035863        4.0933357074
  C        24.8300787029        5.1011181945        3.4033372442
  C        24.4663961858        6.4422046305        3.6359697080
  C        23.4918143800        6.7162931999        4.6126736730
  C        22.8669929506        5.6808534380        5.3020737022
  C        25.0749532815        7.5471648064        2.8620283645
  C        25.0695363832        7.5357384528        1.4408629028
  C        24.3796030027        6.5328550647        0.6889006716
  C        38.3007452587       31.9271756218        5.8479266709
  C        37.5659041229       30.8391615032        5.1377828395
  C        36.6020270980       31.1478133455        4.1651716481
  C        35.9751834114       30.1319461691        3.4481642346
  C        36.2960720708       28.7798511991        3.6801965030
  C        37.2315482229       28.4786143382        4.6885061569
  C        37.8623026502       29.4934437086        5.4049700065
  C        35.6823889633       27.6920315117        2.8827263631
  C        35.7091020444       27.7079358287        1.4604707707
  C        36.4150506338       28.7091756353        0.7218791553
  C        25.7014336806        8.6049300241        0.7275946619
  C        25.6564073842        8.6264942808        3.5384124541
  C        38.3256716877       31.9605470092       10.1561869310
  C        37.5967532563       30.8885078170       10.8957859399
  C        36.6620828007       31.2005486171       11.8954183725
  C        36.0421790488       30.1852443581       12.6219032844
  C        36.3415407422       28.8303067605       12.3742005300
  C        37.2541852546       28.5282430128       11.3444676874
  C        37.8759889020       29.5402376342       10.6187367233
  C        35.7247862939       27.7340492648       13.1586750882
  C        35.7304629854       27.7294661905       14.5814946440
  C        36.4244797415       28.7200201473       15.3449756787
  C        46.1352710502       26.6206661152       15.2814706475
  C        46.0875218906       26.5800224944       12.4735700166
  C        22.4660141068        3.2544372579       10.2522436256
  C        23.1737443670        4.3603977873       10.9641164729
  C        24.1859260741        4.0691635822       11.8924418005
  C        24.8252456335        5.0963238156       12.5818413328
  C        24.4715188464        6.4429008503       12.3653995781
  C        23.4842334409        6.7276037215       11.4035309859
  C        22.8407800168        5.7007489840       10.7138006079
  C        25.1044920434        7.5369504302       13.1424914659
  C        25.0853199653        7.5298340731       14.5644836436
  C        24.3845898628        6.5318292860       15.3125295738
  C        26.5641816074       17.8299296662        5.7855151115
  C        25.2637073242       17.8945230749        5.0601470320
  C        25.0116242829       18.9094391484        4.1238499392
  C        23.8036488025       18.9413480894        3.4313394278
  C        22.8156659517       17.9617487893        3.6546044151
  C        23.0629394554       16.9703386664        4.6226249800
  C        24.2718924262       16.9333573642        5.3136064134
  C        21.5496334683       17.9570716143        2.8831107832
  C        21.5577818164       17.9522030689        1.4611189288
  C        22.7678382725       17.8443779356        0.7053967913
  C        34.4196769825       17.2167503854        5.9156349975
  C        35.7127452404       17.1471661554        5.1763368059
  C        35.9016230989       16.1811057537        4.1753702800
  C        37.0840744038       16.1512852499        3.4408513811
  C        38.1085118763       17.0877606344        3.6829426035
  C        37.9208010631       18.0336875805        4.7096561710
  C        36.7375697087       18.0677758990        5.4440053567
  C        39.3624988835       17.0873364773        2.8938915506
  C        39.3582186959       17.0938865715        1.4710498750
  C        38.1512093446       17.2062383170        0.7113260456
  C        20.3135917928       17.9691963496        0.7494133647
  C        20.3240495108       17.9472056605        3.5619703752
  C        34.4488098522       17.1869986690       10.1765173516
  C        35.7525165450       17.1133419452       10.8967193630
  C        35.9875593915       16.1113151508       11.8512288578
  C        37.1727888168       16.0996124088       12.5817688918
  C        38.1567514476       17.0857005705       12.3743388546
  C        37.9305490323       18.0617065885       11.3854135570
  C        36.7415248080       18.0811729836       10.6606350340
  C        39.4049202561       17.1048726103       13.1710600098
  C        39.3801862499       17.1008256181       14.5926174627
  C        38.1613736937       17.2050952213       15.3342931320
  C        35.0966834802       26.6520957471       15.2862696955
  C        35.1333812004       26.6628846502       12.4766061182
  C        26.5605087921       17.8264031564       10.3224157788
  C        25.2479814371       17.8809183292       11.0236732018
  C        24.9693880774       18.9167970601       11.9282994095
  C        23.7524384561       18.9480189390       12.6024920304
  C        22.7857555559       17.9454918334       12.3920053540
  C        23.0568851321       16.9345029604       11.4524856845
  C        24.2751782243       16.8995578627       10.7779136589
  C        21.5218644571       17.9362809397       13.1635414950
  C        21.5429154902       17.9409026625       14.5844655135
  C        22.7607889616       17.8394427930       15.3289458114
  C        14.0450379531       17.8319347839       10.2841895377
  C        15.3509274773       17.8967915319       11.0021874633
  C        15.6094965601       18.9122548591       11.9356183910
  C        16.8195729182       18.9398622247       12.6249550595
  C        17.8021123010       17.9546699223       12.4016824189
  C        17.5492623390       16.9642559324       11.4344138789
  C        16.3387370326       16.9324120336       10.7462326257
  C        19.0683875215       17.9427080422       13.1717266660
  C        19.0618516164       17.9467039760       14.5933340321
  C        17.8514990968       17.8476718942       15.3492561502
  C        46.8031949546       17.2181927138       10.1591199254
  C        45.5118450451       17.1535377710       10.9043824820
  C        45.3046892924       16.1705770726       11.8847693810
  C        44.1220938138       16.1474386446       12.6197827941
  C        43.1152192705       17.1074963940       12.3978549910
  C        43.3199082405       18.0706110509       11.3910438136
  C        44.5031267413       18.0972694026       10.6564456071
  C        41.8605412179       17.1115342684       13.1859770823
  C        41.8644071066       17.1001573062       14.6084649587
  C        43.0725240940       17.1930021656       15.3688109089
  C        20.3058079184       17.9627674060       15.3052290810
  C        20.2932995872       17.9171501969       12.4926382201
  C        46.7822616385       17.2304861912        5.8881327968
  C        45.4773729044       17.1200052376        5.1730930237
  C        45.2587494787       16.1161573916        4.2169767952
  C        44.0693839676       16.0818730708        3.4923989044
  C        43.0668765689       17.0482851621        3.7056115078
  C        43.2760960780       18.0223193368        4.7001354888
  C        44.4666892217       18.0628635900        5.4199829223
  C        41.8189232696       17.0631447361        2.9083213070
  C        41.8430809363       17.0743950678        1.4867898741
  C        43.0622525427       17.1783279662        0.7456272939
  C        46.1530629137       26.6371155205        0.7262239455
  C        46.1621102454       26.6560260753        3.5358489075
  C        14.0406519651       17.8295861744        5.7066741403
  C        15.3553574622       17.9022332973        5.0075851090
  C        15.6242316576       18.9273009152        4.0885650794
  C        16.8485136293       18.9684815202        3.4263952190
  C        17.8288980980       17.9836064293        3.6587756726
  C        17.5656222571       16.9843911394        4.6129587438
  C        16.3435015544       16.9429911017        5.2791448546
  C        19.0951683874       17.9696208796        2.8908411204
  C        19.0759608048       17.9598925168        1.4697992080
  C        17.8584281148       17.8535381730        0.7254576667
  C        28.8024924647       14.0833921644       10.3547407364
  C        28.2075139463       12.9058118209       11.0436687710
  C        28.9373047087       12.1885001350       12.0031171655
  C        28.3497904055       11.1117149648       12.6626167680
  C        27.0206864603       10.7310943834       12.3874101805
  C        26.3143853437       11.4301134404       11.3916178643
  C        26.8983793855       12.5063656395       10.7300726030
  C        26.3571492050        9.6491754773       13.1498535530
  C        26.3331879668        9.6756149697       14.5707759011
  C        26.8299070819       10.7886771719       15.3205672266
  C        32.1739802252       21.2398623328       10.1089839108
  C        32.7549924118       22.4050070281       10.8374124868
  C        32.0039026086       23.0615723301       11.8252677420
  C        32.5652347835       24.1018261631       12.5609199478
  C        33.8927158867       24.5147724373       12.3320834920
  C        34.6255752597       23.8737518873       11.3143422248
  C        34.0681504544       22.8284865405       10.5803839233
  C        34.5152284363       25.5934219247       13.1356830049
  C        34.5048614829       25.5674055196       14.5582892504
  C        33.9982252369       24.4527010196       15.2982061925
  C        25.7153474070        8.5979370055       15.2835074317
  C        25.7255516190        8.5982147398       12.4717378409
  C        32.0800612970       21.1970831368        5.8493878297
  C        32.6578215770       22.3634735258        5.1185546900
  C        31.9283826690       23.0084636595        4.1073658434
  C        32.5008943517       24.0516110658        3.3826624718
  C        33.8185936239       24.4774491595        3.6442220016
  C        34.5287498090       23.8459437849        4.6840836541
  C        33.9602843924       22.8010232790        5.4079890296
  C        34.4583988580       25.5606087718        2.8603819962
  C        34.4760198172       25.5508555890        1.4374191666
  C        33.9837279421       24.4451060310        0.6750723450
  C        40.6056371546       17.0709543798        0.7625110709
  C        40.5873208336       17.0876798637        3.5726180504
  C        28.6605925612       14.0629623965        5.8210660370
  C        28.0597944088       12.9161994644        5.0827052117
  C        28.8164473509       12.2046657661        4.1385966722
  C        28.2451661268       11.1501434288        3.4319190255
  C        26.9032071529       10.7791830846        3.6474700689
  C        26.1635040781       11.4753999263        4.6217492843
  C        26.7322897512       12.5324523245        5.3290336449
  C        26.2763599200        9.6870296204        2.8668152475
  C        26.2934485336        9.6950889383        1.4455215977
  C        26.8089900212       10.7988886816        0.6963965991
  C        18.1353078555        3.1808769559       10.3171081873
  C        17.4057157515        4.2780040914       11.0156836306
  C        16.3898210163        3.9993842576       11.9429258558
  C        15.7418397750        5.0391938838       12.6064528827
  C        16.0936466697        6.3829707899       12.3669988427
  C        17.0832265238        6.6527577790       11.4035215643
  C        17.7325704166        5.6155829748       10.7384401291
  C        15.4691019862        7.4905404802       13.1300740569
  C        15.4844031327        7.4899067784       14.5517915906
  C        16.1860534146        6.4963512462       15.3049452213
  C        42.9457142095       31.8594415277       10.0727804401
  C        43.6460513514       30.7716997350       10.8167257994
  C        44.5916413565       31.0930278471       11.8027290597
  C        45.1972974171       30.0874876452       12.5504410196
  C        44.8707769632       28.7344431917       12.3356342365
  C        43.9448551186       28.4200955343       11.3225144392
  C        43.3360881825       29.4252400508       10.5744272862
  C        45.4883303078       27.6551457442       13.1388533951
  C        45.4925462048       27.6807837193       14.5605505831
  C        44.8055069130       28.6888745522       15.3071627143
  C        14.8554348156        8.5624106760       15.2641444300
  C        14.8737487109        8.5622457553       12.4514747597
  C        42.9463502874       31.9615626021        5.8089900928
  C        43.6915251499       30.8853756788        5.0954697304
  C        44.6562652691       31.1912777426        4.1233195036
  C        45.2777554909       30.1716903541        3.4055602707
  C        44.9537742692       28.8214060003        3.6430362968
  C        44.0201070722       28.5237263089        4.6536281998
  C        43.3918838955       29.5404982281        5.3658404714
  C        45.5628094027       27.7240015158        2.8577911982
  C        45.5331004011       27.7172822035        1.4365005829
  C        44.8267987047       28.7075248681        0.6835550127
  C        35.0840275972       26.6424216293        0.7323052658
  C        35.0733481805       26.6183634301        3.5428763855
  C        18.1484870353        3.2467947655        5.7066394199
  C        17.4298143152        4.3436006245        4.9972482488
  C        16.4144789155        4.0522608243        4.0738534261
  C        15.7660545059        5.0828379558        3.3984670300
  C        16.1207215724        6.4280902107        3.6210469483
  C        17.1123074514        6.7115514502        4.5780616002
  C        17.7600570921        5.6826887944        5.2578402455
  C        15.4900672021        7.5237236204        2.8486092102
  C        15.4957390902        7.5070097771        1.4274664098
  C        16.1924300359        6.5052657975        0.6807594027
  H        10.6722365656       12.4661379715        3.9041378266
  H        11.6942482778       10.5512183643        2.6623149976
  H        15.3909301646       11.1675933726        4.7727931503
  H        14.3506395689       13.0703973120        6.0181008014
  H        13.3755044632       11.6307404976        1.2011743258
  H        50.3224598235       22.7484118254        3.9868183224
  H        49.3192445283       24.6227667260        2.6807152323
  H        45.6419307194       24.1613121854        4.8638772212
  H        46.6628584790       22.2904420066        6.1722180238
  H        47.6295010115       23.5757540527        1.2461816455
  H        14.8717725996        8.5879621385        4.6085048487
  H        50.2866060206       22.7022945467       12.0605588573
  H        49.2686160802       24.5751376939       13.3606237943
  H        45.6103353399       24.1094813373       11.1455940342
  H        46.6524746337       22.2542177595        9.8312491071
  H        47.6074245694       23.5516490985       14.7968755461
  H        40.6427976742       17.1096456505       11.4184390135
  H        48.6870314948       14.0950732199        7.7999996825
  H        10.6809286661       12.4671097233       12.0936620977
  H        11.6886969548       10.5249490022       13.2973614934
  H        15.3922385702       11.1570925606       11.2046266370
  H        14.3642165575       13.0857008174        9.9892877899
  H        13.3748853649       11.6215484016       14.7530369635
  H        47.9301292152       14.2182097138        9.7108751141
  H        47.7799316586       14.3737891757        6.4952813393
  H        49.0828644648       18.5522374775       10.8671417850
  H        10.4158446016       14.1343147370        7.9987599570
  H        24.4773985843        3.0251600478        3.9132677531
  H        25.6074042350        4.8830731583        2.6742210229
  H        23.2032967481        7.7490873315        4.7966495533
  H        22.0940420780        5.8818472525        6.0397868065
  H        23.8140209887        5.7756685483        1.2240798659
  H        36.3678969795       32.1922671099        3.9731881178
  H        35.2274840894       30.3775669074        2.6971830592
  H        37.4887831002       27.4381516260        4.8761218335
  H        38.6087615710       29.2659801216        6.1624452090
  H        36.9813372053       29.4587290691        1.2669958842
  H        25.6734329216        8.6137975840        4.6266773873
  H        36.4414975450       32.2456274118       12.1008696258
  H        35.3124654186       30.4352793033       13.3889124557
  H        37.4988957135       27.4870351714       11.1448820887
  H        38.6021564549       29.3094660945        9.8429942254
  H        36.9989657499       29.4775314598       14.8196600197
  H        46.1089145973       26.5874416645       11.3855286281
  H        44.6682446707       35.1161688458        7.8141410827
  H        24.4606516513        3.0295666455       12.0558021041
  H        25.6122814879        4.8648966358       13.2964134323
  H        23.2010457526        7.7634637028       11.2281478460
  H        22.0619259688        5.9164859047        9.9860531389
  H        23.8222108844        5.7742798605       14.7745604016
  H        44.9536869819       34.3899642462        9.6947820844
  H        44.9019811690       34.2068882368        6.4907084451
  H        40.6649169082       33.2082890780       10.8527224370
  H        23.1501993201        1.9577561869        8.0029562788
  H        25.7711794162       19.6692546099        3.9546568408
  H        23.6102369588       19.7328430320        2.7105246649
  H        22.3089671187       16.2064403101        4.8010926516
  H        24.4770921446       16.1551511855        6.0449566047
  H        23.7084882752       17.7321190636        1.2367502715
  H        35.1033091357       15.4690587185        3.9786308301
  H        37.2279368765       15.3934810262        2.6738680401
  H        38.7020131133       18.7662488661        4.9017400819
  H        36.5786528642       18.8141971130        6.2188835099
  H        37.2095975187       17.3257685311        1.2395523703
  H        20.3272033314       17.9737022603        4.6501861198
  H        35.2272673373       15.3516280579       12.0173695086
  H        37.3501692373       15.3209821466       13.3204676621
  H        38.6834923024       18.8294372292       11.2193537057
  H        36.5465173076       18.8531482525        9.9198465706
  H        37.2273420695       17.3207260435       14.7917397838
  H        35.1090356134       26.6874351312       11.3887377232
  H        28.5066306898       21.0953085218        7.8936611514
  H        25.7166006781       19.6910152470       12.0860745183
  H        23.5359427650       19.7524534794       13.3020957506
  H        22.3167862481       16.1544665102       11.2863168668
  H        24.5027444115       16.1070334603       10.0690145362
  H        23.6959429132       17.7238362394       14.7888084796
  H        28.9649332464       21.7316804603        9.7099379229
  H        29.1588571998       21.7310890851        6.5220791005
  H        32.1917741095       18.6552173053       10.8922791656
  H        27.3477988414       19.0689867350        8.0839132748
  H        14.8513859524       19.6734202721       12.1056116491
  H        17.0188421784       19.7316121159       13.3439278580
  H        18.2995925309       16.1970067221       11.2549046845
  H        16.1287765633       16.1552992339       10.0152199154
  H        16.9112312388       17.7327991890       14.8179884651
  H        46.0876092188       15.4374471335       12.0641494819
  H        43.9635000845       15.3765080785       13.3706824190
  H        42.5519445018       18.8208733400       11.2143377445
  H        44.6756714865       18.8553465158        9.8959840313
  H        44.0146302052       17.3094050812       14.8407609244
  H        20.2904003851       17.9357332393       11.4042843274
  H        46.0368511708       15.3764829624        4.0425757452
  H        43.9047844410       15.3021307200        2.7518741164
  H        42.5084989593       18.7739255865        4.8725578439
  H        44.6472089004       18.8343006403        6.1646478533
  H        43.9966509578       17.2822647267        1.2895593819
  H        46.1989389096       26.6826095942        4.6232897266
  H        52.7411332812       21.0626636914        8.1946114018
  H        14.8644106239       19.6852796253        3.9117480562
  H        17.0591876475       19.7665669989        2.7177646584
  H        18.3153514250       16.2176062045        4.7967595028
  H        16.1231969295       16.1609264591        6.0016805791
  H        16.9233851089       17.7432490244        1.2664682328
  H        52.3223289131       21.6735947760        6.2947125766
  H        52.0134658288       21.7025322000        9.4954966808
  H        49.0669613183       18.6074864875        5.2042086934
  H        13.2471797081       19.0165780435        7.9761102758
  H        29.9572357854       12.4969739543       12.2226057186
  H        28.9155854724       10.5544428578       13.4060350249
  H        25.2873948108       11.1454031860       11.1725741234
  H        26.3498638759       13.0682120934        9.9781061751
  H        27.2009383130       11.6572543443       14.7846613248
  H        30.9857683592       22.7291470914       12.0144546534
  H        31.9759722445       24.6086243783       13.3219854289
  H        35.6532933703       24.1804604250       11.1308582894
  H        34.6424942219       22.3112091622        9.8152540221
  H        33.6459028383       23.5807014902       14.7546820466
  H        25.7618796296        8.5801174377       11.3839208124
  H        30.9181532818       22.6679416391        3.8914729466
  H        31.9264910299       24.5510785869        2.6055795570
  H        35.5488241099       24.1610686854        4.8938470090
  H        34.5173171334       22.2930332633        6.1916962760
  H        33.6206418903       23.5669690499        1.2014018380
  H        40.5807084041       17.0548364255        4.6604772787
  H        32.5231215057       14.1356811502        8.1759295402
  H        29.8545347103       12.4864389583        3.9781411370
  H        28.8375106966       10.5952739018        2.7076325287
  H        25.1253183104       11.1989885298        4.7938621954
  H        26.1587223129       13.0872031525        6.0678690057
  H        27.1630248699       11.6752448281        1.2315444771
  H        33.2874983117       14.2210028800        6.3443521351
  H        33.4099567368       14.3632675677        9.5409781492
  H        32.1552033548       18.5570268404        5.1667977982
  H        30.1799321749       14.1415012315        8.0657290272
  H        16.1178801572        2.9628127954       12.1291362192
  H        14.9522487269        4.8196151744       13.3218994081
  H        17.3656351388        7.6856839901       11.2106595819
  H        18.5147898625        5.8184092799       10.0108371262
  H        16.7525868720        5.7390090650       14.7714214622
  H        44.8279688672       32.1401098999       11.9768548599
  H        45.9372376693       30.3412294043       13.3063199499
  H        43.6820760148       27.3780321930       11.1524727997
  H        42.5993836572       29.1899421668        9.8098301516
  H        44.2301892737       29.4366625093       14.7688383051
  H        14.8500172380        8.5454288548       11.3632556439
  H        44.8999493296       32.2339560136        3.9320234813
  H        46.0247689563       30.4129084005        2.6524274637
  H        43.7629494554       27.4840121958        4.8450089507
  H        42.6452475314       29.3177393052        6.1241676737
  H        44.2683401941       29.4704423303        1.2181441966
  H        35.0326249894       26.6310461296        4.6304502236
  H        36.6052032354       35.1339170365        8.1807099761
  H        16.1433881351        3.0126609205        3.9042633349
  H        14.9735877629        4.8559152282        2.6885638390
  H        17.3958612136        7.7470271442        4.7548154196
  H        18.5429962803        5.8931962469        5.9825182683
  H        16.7639652043        5.7550938267        1.2191862612
  H        36.2787464414       34.4820657895        6.2733395468
  H        36.3809841419       34.2090979580        9.4997830931
  H        40.5796517951       33.2021490527        5.1539369109
  H        17.4709170313        1.9470438461        7.9740681803
  H        28.6510266515       19.0367785556       12.3535205279
  H        28.7435205109       18.8497939494        3.6761988552
  H        30.6530051312       15.3483509739        3.8117291336
  H        32.4393768132       16.1754011618       12.3614457637
  H        18.8537327771        0.8689888742       12.3352741092
  H        40.5282781224       35.2289557493        3.9521389581
  H        42.3237188503       34.4188188381        3.5903477610
  H        22.0874416550        0.6921748819       12.3516385260
  H        11.5966417063       18.7129093985       12.3825748832
  H        52.2647113439       18.4313141697        3.6774243206
  H        49.2552140428       16.4763644887        3.5840842334
  H        10.1503168286       15.7982695970       12.2926350913
  H        50.8498925527       17.6926456144        3.9540159269
  H        10.0460479659       17.3947265253       12.0519412279
  H        20.2150506779        0.0020555466       12.0419589285
  H        39.1837241723       36.1243482162        3.6864339328
 Ni        30.7728802009       17.6698053259        3.2481587149
 Ni        30.8211706325       17.9384671370       14.6613949126
 Ni        30.4777498960       17.4478157777        0.8307943514
 Ni        30.5224326324       17.5759824135       12.4925233675
  O        10.6497891060       14.3652148663        5.4858131955
  O        12.6130520620       14.6574278769        6.5838424819
  O        49.1476179935       16.8459542899        7.9896672045
  O        50.3501149492       20.9362191361        5.6482369314
  O        48.3484572341       20.5932315125        6.6659366620
  O        11.0510163581       17.0540115877        6.5006409461
  O        50.3206840595       20.8816800423       10.4068411985
  O        48.3466087293       20.5866171774        9.3270108746
  O        49.5433720008       18.2484191196       10.0682493670
  O        12.3588427470       18.6246483174        7.9996302635
  O        48.6931613272       14.1486703979        6.7512730824
  O         8.2098352673       14.2104606561        9.3225529595
  O        10.7352855961       14.5067910760       10.6643501725
  O        12.5717394893       14.5827333262        9.3285491923