     563
 i =      165, E =     -4541.8449351200
  C        11.8585690861       14.0533756650        5.7415396571
  C        12.4559453774       12.8903915763        5.0232657013
  C        11.7043045799       12.1716901961        4.0813877416
  C        12.2806062404       11.1094351320        3.3890637978
  C        13.6211113933       10.7394164413        3.6169026649
  C        14.3542248568       11.4427712529        4.5905795354
  C        13.7814005359       12.5077745867        5.2820947459
  C        14.2605305826        9.6486942825        2.8435078834
  C        14.2556068400        9.6565001128        1.4218046019
  C        13.7424841893       10.7586255436        0.6678727167
  C        49.1264881630       21.2334869505        5.8797950473
  C        48.5495899278       22.4013394470        5.1527790285
  C        49.2995467556       23.0685024493        4.1716088148
  C        48.7325699071       24.1075459611        3.4383332536
  C        47.4020686627       24.5092696350        3.6670594130
  C        46.6712120612       23.8605772526        4.6807695046
  C        47.2337000253       22.8157428461        5.4101927677
  C        46.7718208869       25.5868918812        2.8697227351
  C        46.7608153484       25.5572137983        1.4479651021
  C        47.2607460072       24.4421075701        0.7044881777
  C        14.8593689755        8.5700686960        0.7085295958
  C        14.8913904602        8.5967739364        3.5201352542
  C        49.1128536765       21.2035051113       10.1452438853
  C        48.5274297712       22.3648205787       10.8723616042
  C        49.2665285122       23.0252729333       11.8655567336
  C        48.6901763461       24.0597870440       12.5970400294
  C        47.3598669845       24.4567813427       12.3585733672
  C        46.6396361702       23.8121899466       11.3347130286
  C        47.2132073244       22.7763308795       10.6028830621
  C        46.7213903901       25.5316912842       13.1496186656
  C        46.7330737162       25.5280036931       14.5713200935
  C        47.2484768601       24.4287900997       15.3277259269
  C        40.6188387849       17.0670784078       15.3169644356
  C        40.6360581031       17.1125200068       12.5067985803
  C        11.8828013829       14.0863297398       10.2854810548
  C        12.4717584163       12.9103115736       10.9895392307
  C        11.7141856717       12.1775406281       11.9159530466
  C        12.2804872553       11.0949497952       12.5843649842
  C        13.6190968746       10.7206280694       12.3522451882
  C        14.3570762469       11.4356708312       11.3910461408
  C        13.7919136335       12.5169666367       10.7183504740
  C        14.2525237179        9.6238473637       13.1227128405
  C        14.2513419329        9.6439093309       14.5445514221
  C        13.7417522140       10.7529929073       15.2916166827
  C        22.5019952564        3.2422392658        5.7464415099
  C        23.1960879834        4.3457360748        5.0279899766
  C        24.1945327227        4.0649963409        4.0840721816
  C        24.8085397020        5.1036575931        3.3901667425
  C        24.4373157812        6.4428776824        3.6206251200
  C        23.4620691233        6.7153745924        4.5967490081
  C        22.8446039292        5.6787412222        5.2900532191
  C        25.0435050514        7.5488217238        2.8484138582
  C        25.0460317253        7.5359399875        1.4278750271
  C        24.3606878741        6.5318823121        0.6734602889
  C        38.2986625714       31.9270085319        5.8492282871
  C        37.5584639664       30.8388992076        5.1432316808
  C        36.5929342317       31.1479644923        4.1722436932
  C        35.9607436184       30.1324188057        3.4592309105
  C        36.2774268971       28.7794347448        3.6926508099
  C        37.2139824213       28.4778059132        4.6999499103
  C        37.8500272727       29.4924583882        5.4126789502
  C        35.6609463476       27.6929075336        2.8941645052
  C        35.6931424470       27.7091843239        1.4717288215
  C        36.4053570749       28.7084082567        0.7361446038
  C        25.6817810135        8.6045337523        0.7176790413
  C        25.6187431583        8.6291904469        3.5276767588
  C        38.3274601835       31.9602646986       10.1584929676
  C        37.6031800022       30.8882187627       10.9031517554
  C        36.6696831031       31.2003488253       11.9039062617
  C        36.0519995790       30.1853459433       12.6329053399
  C        36.3519034593       28.8302126770       12.3864377698
  C        37.2651827198       28.5281102281       11.3571985447
  C        37.8849200345       29.5397998718       10.6292315472
  C        35.7321037840       27.7340758806       13.1689442425
  C        35.7294440070       27.7303493654       14.5919214978
  C        36.4215964025       28.7193135602       15.3592715734
  C        46.1350570032       26.6206447523       15.2814410116
  C        46.0874468722       26.5800514205       12.4735640930
  C        22.4666182473        3.2532622371       10.2495165031
  C        23.1769101710        4.3589420476       10.9570101097
  C        24.1893533610        4.0674503068       11.8847086727
  C        24.8295166628        5.0950749651       12.5719476401
  C        24.4756050969        6.4409872323       12.3530162819
  C        23.4892287688        6.7259934754       11.3906885500
  C        22.8449575778        5.6986905772       10.7030327116
  C        25.1056526729        7.5345514434       13.1314074380
  C        25.0785273098        7.5276015685       14.5528804220
  C        24.3731920323        6.5299984852       15.2972521882
  C        26.5670018296       17.8182522083        5.7510941565
  C        25.2608687183       17.8750242724        5.0339427373
  C        25.0008354414       18.8885768305        4.0986404430
  C        23.7887442273       18.9174492856        3.4144524117
  C        22.8058188714       17.9346374790        3.6438910207
  C        23.0604876616       16.9443979758        4.6105696546
  C        24.2734257775       16.9119218181        5.2950430593
  C        21.5393280907       17.9275781794        2.8747500050
  C        21.5490369143       17.9238959688        1.4531738694
  C        22.7599728268       17.8125556071        0.6993274400
  C        34.4195553308       17.2088407554        5.9139895837
  C        35.7141929062       17.1421141424        5.1733590287
  C        35.9151702927       16.1610034315        4.1898248860
  C        37.0977852711       16.1320708877        3.4553570385
  C        38.1112376549       17.0840686630        3.6819773201
  C        37.9125791453       18.0452292285        4.6916708293
  C        36.7284773357       18.0782899075        5.4251727978
  C        39.3659372536       17.0826319628        2.8939353395
  C        39.3613251506       17.0840169793        1.4715167957
  C        38.1534276843       17.1920342286        0.7126919877
  C        20.3060191629       17.9479287861        0.7406375891
  C        20.3138361874       17.9204633971        3.5527543892
  C        34.4473757316       17.2423816600       10.1812024559
  C        35.7485338563       17.1425540955       10.9055117387
  C        35.9724678661       16.1338723280       11.8550654140
  C        37.1602450457       16.1033310308       12.5820483341
  C        38.1562555403       17.0777844241       12.3764563998
  C        37.9409639786       18.0593010075       11.3908791932
  C        36.7512058565       18.0963437020       10.6691161483
  C        39.4050332524       17.0872400830       13.1720025281
  C        39.3813880732       17.0852896584       14.5933528823
  C        38.1629220092       17.1896051465       15.3357355021
  C        35.0888197721       26.6550960901       15.2938763315
  C        35.1436780468       26.6627500792       12.4838988628
  C        26.5599616744       17.8251181488       10.3203683413
  C        25.2486257101       17.8734521214       11.0254252497
  C        24.9699904431       18.9057362456       11.9335537420
  C        23.7521943007       18.9354351161       12.6060364584
  C        22.7849536964       17.9350613714       12.3889196623
  C        23.0563682913       16.9270495024       11.4466526231
  C        24.2759861780       16.8936399545       10.7745032220
  C        21.5197459212       17.9256699580       13.1574692609
  C        21.5384865914       17.9234181625       14.5780542140
  C        22.7550750634       17.8130181693       15.3230950109
  C        14.0443030731       17.8327449448       10.2824138565
  C        15.3508004022       17.8988403496       10.9971430798
  C        15.6112807484       18.9162866342       11.9276465580
  C        16.8223186338       18.9437562245       12.6147982726
  C        17.8023042811       17.9562491820       12.3918049247
  C        17.5480450710       16.9645722060       11.4265024119
  C        16.3367668281       16.9329608255       10.7403634555
  C        19.0671898216       17.9404735860       13.1625319226
  C        19.0576560336       17.9392600482       14.5836847909
  C        17.8455667220       17.8423782623       15.3371204045
  C        46.8031750978       17.2175837742       10.1587953482
  C        45.5117056597       17.1504082134       10.9037621624
  C        45.3071559955       16.1665904962       11.8838344830
  C        44.1245883387       16.1398684949       12.6186591635
  C        43.1151288185       17.0970666406       12.3966807584
  C        43.3172064404       18.0611469078       11.3902831482
  C        44.5005695645       18.0914804620       10.6559409328
  C        41.8607793406       17.0977034818       13.1852927055
  C        41.8656751546       17.0890702922       14.6077593740
  C        43.0739834346       17.1864134270       15.3673078348
  C        20.3004944544       17.9471751957       15.2969266328
  C        20.2924810886       17.9136831766       12.4846888242
  C        46.7829305190       17.2306158673        5.8882995323
  C        45.4786232082       17.1204660063        5.1726674878
  C        45.2604745115       16.1159346475        4.2172718586
  C        44.0715739406       16.0815808382        3.4921738076
  C        43.0695666471       17.0486226122        3.7044418851
  C        43.2784081609       18.0236429120        4.6979576046
  C        44.4685592944       18.0642060390        5.4183573783
  C        41.8217565225       17.0618136071        2.9075509782
  C        41.8457505135       17.0694138329        1.4860876509
  C        43.0644506403       17.1743508440        0.7441714593
  C        46.1528376014       26.6370974193        0.7261951537
  C        46.1619350223       26.6560538643        3.5358382271
  C        14.0390370934       17.8274386498        5.7054771287
  C        15.3513043692       17.8948375099        5.0028637074
  C        15.6207194004       18.9178536699        4.0818888459
  C        16.8433650514       18.9540862579        3.4168171875
  C        17.8205923414       17.9660336228        3.6484475488
  C        17.5566800434       16.9685672324        4.6041341176
  C        16.3363461554       16.9321754089        5.2733053881
  C        19.0859109011       17.9478982280        2.8802349270
  C        19.0675616476       17.9416276485        1.4593605307
  C        17.8504736731       17.8430217796        0.7132491743
  C        28.8077459490       14.0840888117       10.3619951548
  C        28.2110604899       12.9057006210       11.0503048467
  C        28.9429523759       12.1784803598       12.0001022816
  C        28.3542889128       11.1007818557       12.6569385150
  C        27.0223221989       10.7286482848       12.3857885639
  C        26.3132148342       11.4369057772       11.3992363965
  C        26.8984905424       12.5147976416       10.7417499482
  C        26.3575915576        9.6456398822       13.1444789081
  C        26.3277602459        9.6723223711       14.5647754536
  C        26.8237545918       10.7847087845       15.3161220221
  C        32.1765037479       21.2411170935       10.1056487088
  C        32.7605971411       22.4061795737       10.8374187369
  C        32.0022355004       23.0801545410       11.8076106904
  C        32.5636492369       24.1194381799       12.5450705363
  C        33.8989845458       24.5160292420       12.3341150221
  C        34.6398159388       23.8591491408       11.3327109484
  C        34.0818035293       22.8139165886       10.5981323556
  C        34.5193444712       25.5951718504       13.1399493709
  C        34.4988185021       25.5716701483       14.5624629117
  C        33.9829777058       24.4595907646       15.2998655866
  C        25.7047226244        8.5959471963       15.2742988788
  C        25.7293612295        8.5953844131       12.4630622576
  C        32.0876780786       21.1650652857        5.8366239255
  C        32.6482625241       22.3428263346        5.1082262522
  C        31.9132107198       22.9902014477        4.1029547648
  C        32.4773013926       24.0433009417        3.3847243959
  C        33.7931187773       24.4762266863        3.6458344855
  C        34.5076142430       23.8434947265        4.6818512550
  C        33.9468864404       22.7906188041        5.3999754232
  C        34.4308121117       25.5640822439        2.8655020796
  C        34.4534773990       25.5557744651        1.4423775564
  C        33.9610160951       24.4521323065        0.6766875156
  C        40.6081812273       17.0616890898        0.7623117698
  C        40.5904640080       17.0871572491        3.5725247288
  C        28.6691749001       14.0287055960        5.8257887738
  C        28.0505662214       12.8922506402        5.0856695978
  C        28.8038962929       12.1680930359        4.1486782993
  C        28.2223993969       11.1236159677        3.4370327352
  C        26.8732978406       10.7749690901        3.6420805128
  C        26.1351953412       11.4835946372        4.6079866176
  C        26.7146850078       12.5322300406        5.3196488918
  C        26.2430133921        9.6879175959        2.8586334648
  C        26.2700792248        9.6947058953        1.4379699257
  C        26.7942905490       10.7964762294        0.6917357693
  C        18.1351460836        3.1808600009       10.3171845213
  C        17.4055129932        4.2779450008       11.0157176024
  C        16.3896767503        3.9993309673       11.9430241860
  C        15.7416516344        5.0391559745       12.6064698337
  C        16.0934527467        6.3829306713       12.3669826785
  C        17.0829811565        6.6527129330       11.4034529502
  C        17.7323765314        5.6155246939       10.7384491703
  C        15.4689245583        7.4905084163       13.1300313340
  C        15.4842877275        7.4898878894       14.5517416484
  C        16.1859811795        6.4963530572       15.3048801137
  C        42.9456741087       31.8594792808       10.0727503430
  C        43.6460152475       30.7717278657       10.8166885002
  C        44.5915202765       31.0930481787       11.8027748201
  C        45.1971804816       30.0874974161       12.5504691359
  C        44.8706883287       28.7344575613       12.3356147491
  C        43.9449173059       28.4201146072       11.3223620626
  C        43.3361448449       29.4252662065       10.5742982591
  C        45.4882267090       27.6551611826       13.1388260453
  C        45.4923560694       27.6807736976       14.5605171492
  C        44.8053038198       28.6888612797       15.3071192963
  C        14.8553801502        8.5624177766       15.2640992258
  C        14.8736155846        8.5622370549       12.4514352600
  C        42.9463585308       31.9616062755        5.8090314478
  C        43.6914952758       30.8854189902        5.0954839294
  C        44.6561671089       31.1913323696        4.1232763994
  C        45.2775883054       30.1717356832        3.4054711818
  C        44.9536775120       28.8214444265        3.6430281757
  C        44.0200948405       28.5237839209        4.6537070373
  C        43.3919297799       29.5405543157        5.3659649946
  C        45.5626411339       27.7240235655        2.8577577966
  C        45.5328937645       27.7172816528        1.4364645759
  C        44.8265864822       28.7075234727        0.6835132683
  C        35.0680880519       26.6457844392        0.7401573636
  C        35.0460161889       26.6202852022        3.5511007849
  C        18.1482935191        3.2468113447        5.7065902319
  C        17.4296900607        4.3435830678        4.9971359235
  C        16.4144460329        4.0522744225        4.0736363303
  C        15.7660555433        5.0828872911        3.3982845698
  C        16.1207280493        6.4281271961        3.6209422352
  C        17.1122204156        6.7115633346        4.5780630070
  C        17.7599164620        5.6826634601        5.2578244635
  C        15.4901051890        7.5237836487        2.8485400775
  C        15.4957308082        7.5070393002        1.4274029719
  C        16.1924297902        6.5053050012        0.6806905455
  H        10.6722383490       12.4659745714        3.9042645293
  H        11.6943472445       10.5510887737        2.6623984166
  H        15.3911971775       11.1680234710        4.7724248163
  H        14.3508281665       13.0707571956        6.0177488927
  H        13.3757634074       11.6308982662        1.2011380168
  H        50.3222353594       22.7484226127        3.9868347365
  H        49.3189812604       24.6227040875        2.6806230071
  H        45.6417728461       24.1614717719        4.8640447603
  H        46.6627862688       22.2906683223        6.1724769387
  H        47.6292657000       23.5757266630        1.2461841883
  H        14.8719299355        8.5881008012        4.6084469881
  H        50.2864821480       22.7022422157       12.0606492094
  H        49.2684698027       24.5750713559       13.3607323622
  H        45.6103605155       24.1097034564       11.1453808149
  H        46.6525301079       22.2544409071        9.8310278610
  H        47.6072598500       23.5516552471       14.7968633758
  H        40.6419692443       17.0908262036       11.4186586801
  H        48.6871607396       14.0950859983        7.8000769100
  H        10.6808960360       12.4670889691       12.0936095729
  H        11.6886717004       10.5248804770       13.2973001694
  H        15.3923533693       11.1573499166       11.2048882862
  H        14.3643285983       13.0859624787        9.9895876202
  H        13.3750634045       11.6216667882       14.7529863610
  H        47.9301117002       14.2184697068        9.7107336218
  H        47.7799700939       14.3740821757        6.4955102746
  H        49.0827221807       18.5522900084       10.8671659353
  H        10.4159754812       14.1343128569        7.9987362465
  H        24.4683644348        3.0272799724        3.9074254868
  H        25.5864865449        4.8887261501        2.6608263265
  H        23.1685024502        7.7472858725        4.7775634084
  H        22.0715553306        5.8767402604        6.0284018773
  H        23.7921868517        5.7752466800        1.2063443007
  H        36.3616711507       32.1926457190        3.9779507419
  H        35.2125666410       30.3793129773        2.7091159254
  H        37.4685135213       27.4370491498        4.8897108939
  H        38.5973065688       29.2636765102        6.1689858836
  H        36.9711888977       29.4564562023        1.2837588163
  H        25.6298732602        8.6174097413        4.6159965054
  H        36.4475248373       32.2454121407       12.1077767787
  H        35.3223776203       30.4358714578       13.3998342832
  H        37.5111879469       27.4869851281       11.1587760882
  H        38.6107771686       29.3086008485        9.8533175909
  H        37.0008786734       29.4753157348       14.8369761191
  H        46.1089090294       26.5874950934       11.3855312221
  H        44.6682040694       35.1162308338        7.8142729879
  H        24.4625261023        3.0276947573       12.0494620442
  H        25.6162055319        4.8650833623       13.2873347456
  H        23.2072655827        7.7619889380       11.2142418192
  H        22.0659419576        5.9130701910        9.9751134964
  H        23.8137156067        5.7723358154       14.7564692653
  H        44.9535439519       34.3896716842        9.6945495814
  H        44.9020133776       34.2068919661        6.4907960575
  H        40.6653364218       33.2082865827       10.8527992750
  H        23.1497847923        1.9578111021        8.0019475719
  H        25.7580616580       19.6495684942        3.9254604215
  H        23.5875773448       19.7079376761        2.6946892416
  H        22.3096120509       16.1784153865        4.7931771283
  H        24.4854462237       16.1358857040        6.0267500820
  H        23.6988588341       17.6933247794        1.2321490613
  H        35.1260240595       15.4344686192        4.0100992984
  H        37.2521059555       15.3629886262        2.7016418583
  H        38.6859247214       18.7891689522        4.8716075856
  H        36.5603759534       18.8353582047        6.1876958572
  H        37.2126605063       17.3101549842        1.2427595679
  H        20.3162455175       17.9464407202        4.6409765568
  H        35.2021605917       15.3837371419       12.0194096975
  H        37.3303021797       15.3189149335       13.3163717678
  H        38.7034912976       18.8176889167       11.2257052010
  H        36.5648265033       18.8720233859        9.9301939693
  H        37.2292190069       17.3044074575       14.7926598994
  H        35.1266074614       26.6858913126       11.3958714522
  H        28.5030881252       21.0850351130        7.7991267713
  H        25.7181075109       19.6786362978       12.0931860588
  H        23.5344210720       19.7370763461       13.3084358598
  H        22.3153297232       16.1488853952       11.2759673221
  H        24.5043944494       16.1045791857       10.0620414547
  H        23.6900721644       17.6950125153       14.7831748531
  H        28.9745761092       21.7270461636        9.6792974931
  H        29.2062721364       21.6893689223        6.4677046620
  H        32.0997027865       18.6320398755       10.8821258759
  H        27.3678441586       19.0310873563        8.0122251415
  H        14.8538891925       19.6782578197       12.0971150342
  H        17.0241326668       19.7360048045       13.3324943425
  H        18.2975731264       16.1963558876       11.2478991767
  H        16.1242973219       16.1550965007       10.0109349163
  H        16.9056889008       17.7335353915       14.8039528093
  H        46.0921726299       15.4356872179       12.0630610909
  H        43.9681388151       15.3684763365       13.3695350762
  H        42.5471087307       18.8092376529       11.2136758075
  H        44.6711530476       18.8502754526        9.8957364491
  H        44.0154939960       17.3041119988       14.8384754808
  H        20.2910970945       17.9365016602       11.3964252537
  H        46.0385223767       15.3759431497        4.0440345577
  H        43.9067669875       15.3013889838        2.7521813076
  H        42.5109161937       18.7756018649        4.8692506069
  H        44.6493337694       18.8361205861        6.1624509203
  H        43.9988691309       17.2815666180        1.2874519506
  H        46.1988038197       26.6826540533        4.6232832829
  H        52.7412341980       21.0626508524        8.1946096723
  H        14.8629120864       19.6781271254        3.9063859525
  H        17.0555810914       19.7507317881        2.7070540815
  H        18.3046018403       16.1997665100        4.7868076151
  H        16.1148491524       16.1519448758        5.9974114312
  H        16.9142655695       17.7346727042        1.2526615672
  H        52.3224362760       21.6737018906        6.2947098860
  H        52.0136178382       21.7027836944        9.4953490676
  H        49.0668440528       18.6077609996        5.2041645385
  H        13.2471259937       19.0163256135        7.9753978585
  H        29.9672432939       12.4779400424       12.2112087365
  H        28.9208157039       10.5351217111       13.3934708771
  H        25.2837951296       11.1577816651       11.1844560165
  H        26.3490775469       13.0845311445        9.9964762030
  H        27.2007991035       11.6509794208       14.7806653838
  H        30.9757488504       22.7639170759       11.9782553921
  H        31.9684858795       24.6398396261       13.2923368955
  H        35.6734156186       24.1534852086       11.1622362972
  H        34.6615733864       22.2840187997        9.8457530643
  H        33.6305442767       23.5895392797       14.7532491846
  H        25.7700078472        8.5779161262       11.3754029464
  H        30.9039913218       22.6462552060        3.8874338507
  H        31.8976781070       24.5451407445        2.6130055596
  H        35.5257592417       24.1639692545        4.8929060294
  H        34.5075880705       22.2827623697        6.1811040201
  H        33.5924344803       23.5754105160        1.2014176343
  H        40.5839991997       17.0585007708        4.6604981269
  H        32.5224438817       14.1381491042        8.2542090734
  H        29.8478126633       12.4332560378        3.9994749319
  H        28.8109304188       10.5579908595        2.7179956602
  H        25.0913088169       11.2233326754        4.7706400793
  H        26.1439498080       13.0978645046        6.0524492791
  H        27.1477220432       11.6717440917        1.2291461378
  H        33.2986984972       14.2022200818        6.4307781910
  H        33.4057237427       14.4024423386        9.6085149149
  H        32.0874967102       18.4379832494        5.0885139372
  H        30.1990567511       14.1341025618        8.0816369044
  H        16.1177678679        2.9627599179       12.1292660947
  H        14.9521144551        4.8196028646       13.3219800867
  H        17.3654129649        7.6856366925       11.2105927119
  H        18.5145920042        5.8183650871       10.0108418125
  H        16.7525507722        5.7390463096       14.7713462882
  H        44.8277968426       32.1401359195       11.9769451167
  H        45.9370292856       30.3412369140       13.3064354557
  H        43.6822085850       27.3780517558       11.1522454129
  H        42.5995510535       29.1899808981        9.8095935714
  H        44.2299896688       29.4366437607       14.7687937524
  H        14.8498955165        8.5454472627       11.3632152018
  H        44.8997782125       32.2340156095        3.9319144124
  H        46.0245423044       30.4129425710        2.6522721797
  H        43.7630080133       27.4840658356        4.8451634901
  H        42.6453376986       29.3178093141        6.1243349604
  H        44.2681333987       29.4704516793        1.2181035615
  H        35.0024517298       26.6315027648        4.6386133119
  H        36.6052793363       35.1339103461        8.1805709794
  H        16.1433856484        3.0126813107        3.9039704358
  H        14.9736669053        4.8560140838        2.6882817298
  H        17.3957811106        7.7470314180        4.7548710794
  H        18.5427611660        5.8931528415        5.9826145232
  H        16.7640466558        5.7551855705        1.2190997333
  H        36.2790526184       34.4818992710        6.2733317634
  H        36.3809292940       34.2090377056        9.4995982116
  H        40.5793650196       33.2023195106        5.1540096571
  H        17.4706014855        1.9472148110        7.9739863379
  H        28.7026161405       18.9353053988       12.1342169413
  H        28.7769980036       18.6859020912        3.7589890417
  H        30.5967944479       15.2839189150        3.9225468729
  H        32.3698132384       16.4772289962       12.2291850681
  H        29.3527440239       19.1354886519       14.5470773592
  H        18.8537074883        0.8690388829       12.3351136015
  H        40.5283932382       35.2289765487        3.9521442244
  H        42.3236271048       34.4187678434        3.5903590427
  H        22.0872056821        0.6922955335       12.3516390373
  H        11.5966830012       18.7126996499       12.3824954454
  H        52.2644351047       18.4315053310        3.6773460596
  H        49.2551595735       16.4764531343        3.5841225690
  H        10.1504434329       15.7983298978       12.2925507502
  H        50.8497596586       17.6925732898        3.9540016605
  H        10.0460394104       17.3948008297       12.0519070997
  H        20.2149672539        0.0020196941       12.0419254471
  H        39.1837618475       36.1244019803        3.6863291856
 Ni        30.4817232655       17.3999540358        2.8340967874
 Ni        30.1848720210       17.2814010061       -0.0843402875
 Ni        30.3525379836       17.5201148665       12.9934214683
  O        10.6498040817       14.3652051104        5.4857644494
  O        12.6130195798       14.6573747432        6.5838402481
  O        49.1475711554       16.8459263551        7.9896853754
  O        50.3499972803       20.9365077404        5.6482953322
  O        48.3483934357       20.5932757636        6.6659806266
  O        11.0507941445       17.0541700621        6.5005540556
  O        50.3205815585       20.8817136568       10.4068921297
  O        48.3465567833       20.5866300366        9.3270189954
  O        49.5432179960       18.2484278873       10.0682883005
  O        12.3586637916       18.6247058403        7.9995941237
  O        48.6931639404       14.1486352876        6.7512994096
  O         8.2098562664       14.2104047403        9.3225223430
  O        10.7352386820       14.5067929887       10.6643364709
  O        12.5716838823       14.5826651805        9.3285523839