     565
 i =      155, E =     -4543.0451151952
  C        11.8586213057       14.0534995099        5.7415600198
  C        12.4560023038       12.8904680466        5.0232872066
  C        11.7042925581       12.1717531178        4.0814775849
  C        12.2805307125       11.1094794586        3.3891221727
  C        13.6210178519       10.7393961219        3.6169396202
  C        14.3541926288       11.4427522524        4.5905675625
  C        13.7814302440       12.5077819474        5.2821099031
  C        14.2603955096        9.6486579119        2.8435122173
  C        14.2554586333        9.6564365017        1.4218015083
  C        13.7422936693       10.7585420965        0.6678715578
  C        49.1265408488       21.2333552616        5.8798001767
  C        48.5496563150       22.4012250742        5.1527565183
  C        49.2996528046       23.0684695148        4.1716752993
  C        48.7326919019       24.1075298934        3.4384074267
  C        47.4021640689       24.5091877906        3.6670666345
  C        46.6712389195       23.8603883197        4.6806521524
  C        47.2337157605       22.8155384648        5.4100683377
  C        46.7719329320       25.5868467286        2.8697495665
  C        46.7609487949       25.5572264750        1.4479879670
  C        47.2608836073       24.4421298355        0.7045024660
  C        14.8592113911        8.5699956538        0.7085243109
  C        14.8912598835        8.5967368303        3.5201345157
  C        49.1128530002       21.2033980131       10.1453155832
  C        48.5274136369       22.3647437890       10.8724060577
  C        49.2666057862       23.0253787870       11.8654066682
  C        48.6902674379       24.0599029456       12.5968896092
  C        47.3598702723       24.4567048037       12.3586078916
  C        46.6394900382       23.8118682716       11.3350137077
  C        47.2130551438       22.7759876055       10.6031978255
  C        46.7214255112       25.5316572080       13.1496459388
  C        46.7331693727       25.5280232528       14.5713498366
  C        47.2486110527       24.4288199151       15.3277407529
  C        40.6137240525       17.0543717720       15.3147649777
  C        40.6294415453       17.0893846777       12.5044540420
  C        11.8827028981       14.0863890578       10.2854113040
  C        12.4716456560       12.9102947244       10.9894653212
  C        11.7140238002       12.1775663071       11.9158688585
  C        12.2802745156       11.0949481430       12.5842957835
  C        13.6188736025       10.7205778703       12.3522103589
  C        14.3568720006       11.4355670356       11.3909841843
  C        13.7917816519       12.5169007683       10.7182739079
  C        14.2522756075        9.6237709050       13.1226908465
  C        14.2511540142        9.6438384056       14.5445384149
  C        13.7415203463       10.7528934722       15.2916144988
  C        22.5035015766        3.2424879683        5.7469946820
  C        23.2010236142        4.3455348409        5.0302613975
  C        24.1995424048        4.0631165216        4.0868173079
  C        24.8170269021        5.1006226711        3.3940975647
  C        24.4496363809        6.4408538143        3.6250431768
  C        23.4745434532        6.7150258735        4.6009729804
  C        22.8535053077        5.6794581798        5.2930943912
  C        25.0583232832        7.5455064624        2.8521734800
  C        25.0587501201        7.5327791629        1.4314800074
  C        24.3698610307        6.5304162388        0.6780389205
  C        38.2998525832       31.9270765201        5.8488051232
  C        37.5625365137       30.8391628209        5.1407431179
  C        36.5972378535       31.1484426642        4.1697155004
  C        35.9678421757       30.1329938495        3.4544097053
  C        36.2875990484       28.7805778540        3.6862379466
  C        37.2241681418       28.4786357134        4.6932896415
  C        37.8574219340       29.4931563365        5.4082110250
  C        35.6720964721       27.6939945700        2.8882051361
  C        35.7002582800       27.7109913796        1.4659413237
  C        36.4101047101       28.7107334514        0.7288628594
  C        25.6957849832        8.6000261755        0.7202692530
  C        25.6370428700        8.6248536259        3.5302853945
  C        38.3268257738       31.9606372398       10.1572384368
  C        37.6005991483       30.8887693251       10.8995318068
  C        36.6664279048       31.2011342357       11.8994925542
  C        36.0477384391       30.1860739165       12.6272738878
  C        36.3478038446       28.8311341991       12.3803402641
  C        37.2609924849       28.5287584660       11.3512238373
  C        37.8816260038       29.5405293952       10.6243043387
  C        35.7290975084       27.7354200378       13.1637333482
  C        35.7292275035       27.7322157510       14.5865674133
  C        36.4230260117       28.7215601516       15.3519879018
  C        46.1351646835       26.6206666936       15.2814780020
  C        46.0874612143       26.5800033393       12.4735902468
  C        22.4660825771        3.2533348956       10.2503278080
  C        23.1754430771        4.3588676708       10.9595771087
  C        24.1879235000        4.0667841431       11.8870660920
  C        24.8284673226        5.0938503881       12.5748403269
  C        24.4749931997        6.4400680262       12.3568631760
  C        23.4877985501        6.7256761926       11.3955089005
  C        22.8431614695        5.6988533900       10.7072926923
  C        25.1076613828        7.5329345023       13.1344067506
  C        25.0847806119        7.5253436420       14.5560756251
  C        24.3793076124        6.5288191284       15.3018095565
  C        26.5631292139       17.8303710958        5.7860726662
  C        25.2627962642       17.8991564636        5.0598270471
  C        25.0122572618       18.9163210020        4.1257309016
  C        23.8045964984       18.9517025549        3.4327404614
  C        22.8147072357       17.9736939270        3.6540074320
  C        23.0604065332       16.9796888099        4.6196661493
  C        24.2693569403       16.9391993573        5.3106582562
  C        21.5486498050       17.9726531348        2.8822387794
  C        21.5570417987       17.9683085921        1.4602505078
  C        22.7672450236       17.8578918654        0.7051298718
  C        34.4138010782       17.2146432017        5.9122690949
  C        35.7083753485       17.1445007399        5.1718736491
  C        35.9101975425       16.1619929893        4.1896514434
  C        37.0932280738       16.1317866196        3.4556040763
  C        38.1076487946       17.0831556170        3.6814421591
  C        37.9084848160       18.0451542154        4.6904028216
  C        36.7237959739       18.0799288644        5.4230716415
  C        39.3627918484       17.0797626679        2.8932827929
  C        39.3577433483       17.0791718147        1.4706732093
  C        38.1501186501       17.1912464428        0.7121338566
  C        20.3131033881       17.9873478400        0.7480244743
  C        20.3228391110       17.9636281532        3.5605772020
  C        34.4353100761       17.2380486588       10.1851763761
  C        35.7373947987       17.1335587117       10.9073227866
  C        35.9457452584       16.1424372739       11.8783036939
  C        37.1361148420       16.1051553154       12.6008189936
  C        38.1484088445       17.0584065592       12.3741362265
  C        37.9465031530       18.0228810145       11.3687480877
  C        36.7557914260       18.0644777141       10.6486439160
  C        39.3976881986       17.0677683380       13.1695353958
  C        39.3757103419       17.0732896636       14.5915280059
  C        38.1586057688       17.1864409030       15.3351405414
  C        35.0900459435       26.6571540427       15.2899759694
  C        35.1401268603       26.6636784959       12.4800511566
  C        26.5644776276       17.8264459505       10.3268085056
  C        25.2508798717       17.8857739178       11.0266739981
  C        24.9782737045       18.9178190551       11.9371855877
  C        23.7603821316       18.9531513001       12.6093768905
  C        22.7872281957       17.9584148618       12.3914586700
  C        23.0525241038       16.9519238679       11.4454924520
  C        24.2715621837       16.9131654632       10.7726577477
  C        21.5232016646       17.9511348188       13.1624138714
  C        21.5434758590       17.9563705499       14.5834939004
  C        22.7608152038       17.8527119966       15.3286743242
  C        14.0454067121       17.8327455347       10.2836776381
  C        15.3516922788       17.9003441726       11.0005401642
  C        15.6098051066       18.9194035277       11.9302171843
  C        16.8202043169       18.9507929936       12.6186933089
  C        17.8034860922       17.9656150627       12.3988737353
  C        17.5511088260       16.9714693633       11.4352589039
  C        16.3403530870       16.9360802041       10.7474825738
  C        19.0695360575       17.9571176387       13.1695237097
  C        19.0622109754       17.9641932216       14.5912036077
  C        17.8514923881       17.8675810378       15.3467683008
  C        46.8016677703       17.2165498920       10.1584547501
  C        45.5088736791       17.1453626463       10.9017958344
  C        45.3056490548       16.1591585052       11.8799903724
  C        44.1223021380       16.1271478493       12.6136250864
  C        43.1095782599       17.0812979674       12.3929171241
  C        43.3101563082       18.0475093710       11.3880447752
  C        44.4944099693       18.0831842039       10.6548101929
  C        41.8547884763       17.0786660453       13.1820534551
  C        41.8603889761       17.0732675326       14.6048121343
  C        43.0689631735       17.1713293829       15.3638971521
  C        20.3059572376       17.9802193539       15.3037037123
  C        20.2947321680       17.9312242518       12.4911401810
  C        46.7820196367       17.2305790596        5.8877406469
  C        45.4775814759       17.1197433158        5.1716801578
  C        45.2594213330       16.1141518265        4.2172045990
  C        44.0704443821       16.0782492734        3.4920684254
  C        43.0675029230       17.0448740108        3.7026803311
  C        43.2765515075       18.0211368862        4.6951386551
  C        44.4666938566       18.0631251436        5.4158178664
  C        41.8190550004       17.0564034134        2.9058884234
  C        41.8421375404       17.0604363601        1.4840626374
  C        43.0603802751       17.1621638190        0.7409306727
  C        46.1529499174       26.6371115300        0.7262343238
  C        46.1620236920       26.6559865941        3.5358725578
  C        14.0408967685       17.8309025385        5.7069814206
  C        15.3553952199       17.9072978383        5.0080768168
  C        15.6207119896       18.9338919554        4.0896059732
  C        16.8444337512       18.9795753106        3.4267826375
  C        17.8280494428       17.9975701088        3.6576545541
  C        17.5682589579       16.9969200002        4.6114260273
  C        16.3467583393       16.9511295812        5.2785259545
  C        19.0940462774       17.9869905017        2.8891657842
  C        19.0751359099       17.9790503806        1.4680044998
  C        17.8578540483       17.8743190105        0.7230221193
  C        28.8167308251       14.0835966890       10.3698223247
  C        28.2238283424       12.9024339309       11.0552857195
  C        28.9579818955       12.1606829241       11.9922829902
  C        28.3668498848       11.0836621524       12.6479069852
  C        27.0296633767       10.7237275130       12.3864731788
  C        26.3183257141       11.4435800324       11.4099497860
  C        26.9056419393       12.5221434815       10.7555420697
  C        26.3638761622        9.6412936003       13.1455212720
  C        26.3393725382        9.6669382497       14.5659720376
  C        26.8410467164       10.7773019203       15.3165318058
  C        32.1759258746       21.2354999194       10.1169504921
  C        32.7574603807       22.4032452297       10.8440713180
  C        31.9969526890       23.0845765091       11.8075765712
  C        32.5583928377       24.1259055766       12.5418059425
  C        33.8956693281       24.5171240383       12.3338281375
  C        34.6384356704       23.8539874959       11.3381521899
  C        34.0804913626       22.8066749127       10.6068960559
  C        34.5164676195       25.5970388991       13.1378714247
  C        34.4974738436       25.5740664209       14.5602833446
  C        33.9805559453       24.4631553776       15.2988321847
  C        25.7153393045        8.5918082295       15.2766813744
  C        25.7308727698        8.5934947673       12.4648783653
  C        32.0706721418       21.1886046341        5.8424392079
  C        32.6463110715       22.3588635792        5.1126184582
  C        31.9109818222       23.0167029093        4.1142014802
  C        32.4817422330       24.0630103117        3.3922371586
  C        33.8039636189       24.4801204148        3.6446626668
  C        34.5199471197       23.8374066208        4.6733004940
  C        33.9527955077       22.7894083019        5.3940660448
  C        34.4432521565       25.5653929074        2.8627051803
  C        34.4602151623       25.5580037208        1.4397300220
  C        33.9622290858       24.4557218153        0.6757414677
  C        40.6041402428       17.0526574281        0.7605685740
  C        40.5877982406       17.0841495830        3.5713341079
  C        28.6764794339       14.0336498774        5.8246726684
  C        28.0616469953       12.8947624024        5.0843220341
  C        28.8160492987       12.1750498356        4.1448418956
  C        28.2380846263       11.1272676367        3.4348775869
  C        26.8913695738       10.7713711863        3.6432135523
  C        26.1521158860       11.4764417153        4.6109879961
  C        26.7281549639       12.5277794873        5.3213765315
  C        26.2622266372        9.6828810825        2.8604985357
  C        26.2876143969        9.6890654422        1.4395882280
  C        26.8137758978       10.7892222597        0.6922457712
  C        18.1351727437        3.1808786203       10.3171621413
  C        17.4054740052        4.2779410147       11.0156508406
  C        16.3897777688        3.9992788810       11.9431052266
  C        15.7417100288        5.0390614236       12.6065732120
  C        16.0932580765        6.3828795527       12.3669228876
  C        17.0825639380        6.6527049837       11.4031651119
  C        17.7319962838        5.6155557770       10.7381373938
  C        15.4687150266        7.4904317577       13.1299997252
  C        15.4841044354        7.4898116579       14.5517162430
  C        16.1858341534        6.4963052648       15.3048611676
  C        42.9456939242       31.8594372409       10.0728300523
  C        43.6460301404       30.7717180327       10.8167327988
  C        44.5914754647       31.0930364214       11.8028859195
  C        45.1971258623       30.0874841270       12.5505762510
  C        44.8707286473       28.7344256139       12.3356443265
  C        43.9449966600       28.4200902840       11.3223452208
  C        43.3362312711       29.4252417509       10.5742764028
  C        45.4882650740       27.6551315198       13.1388597958
  C        45.4924485702       27.6807846373       14.5605524522
  C        44.8053604968       28.6888351565       15.3071722155
  C        14.8552005563        8.5623419331       15.2640848670
  C        14.8733725237        8.5621588946       12.4514165345
  C        42.9464008030       31.9615762055        5.8090046116
  C        43.6915713575       30.8854109767        5.0955304642
  C        44.6561179793       31.1913085877        4.1231817150
  C        45.2775755352       30.1717029514        3.4054320933
  C        44.9537652997       28.8213973810        3.6430852689
  C        44.0203257709       28.5237484692        4.6539070694
  C        43.3921243204       29.5405301048        5.3661128206
  C        45.5627367249       27.7239823209        2.8578187107
  C        45.5329984090       27.7172803924        1.4365220492
  C        44.8266574340       28.7074943840        0.6835659260
  C        35.0732965762       26.6477129722        0.7360662746
  C        35.0607109563       26.6206038137        3.5468884697
  C        18.1483335071        3.2468234371        5.7065703181
  C        17.4296697229        4.3435821541        4.9971880886
  C        16.4145074559        4.0522428127        4.0735997276
  C        15.7660822315        5.0828279080        3.3982428203
  C        16.1206157172        6.4281011332        3.6209610172
  C        17.1119613208        6.7115587097        4.5782358035
  C        17.7596994587        5.6826880025        5.2580022104
  C        15.4899730433        7.5237383151        2.8485434364
  C        15.4955986375        7.5069803394        1.4274028031
  C        16.1922843104        6.5052498335        0.6806736610
  H        10.6722412106       12.4660980776        3.9043673792
  H        11.6941966733       10.5511472665        2.6625069384
  H        15.3911549394       11.1679556513        4.7723908873
  H        14.3509164912       13.0707961498        6.0176959377
  H        13.3755212516       11.6307884897        1.2011447085
  H        50.3223506894       22.7484082609        3.9869281797
  H        49.3191411264       24.6227481203        2.6807700529
  H        45.6417590562       24.1611908621        4.8638470253
  H        46.6627252903       22.2903471768        6.1722174762
  H        47.6294056034       23.5757440165        1.2461846414
  H        14.8717927130        8.5880708859        4.6084453713
  H        50.2866323586       22.7024875204       12.0603440490
  H        49.2686291698       24.5753148632       13.3604452806
  H        45.6100999008       24.1091386983       11.1459166919
  H        46.6522471522       22.2538767149        9.8315863516
  H        47.6073817344       23.5516889796       14.7968578777
  H        40.6351146666       17.0630998130       11.4164027375
  H        48.6871178603       14.0951247148        7.8000212061
  H        10.6807370101       12.4671518244       12.0934921663
  H        11.6884028490       10.5249255987       13.2972222366
  H        15.3921308787       11.1571859430       11.2048187107
  H        14.3641992697       13.0858539494        9.9894765767
  H        13.3747740218       11.6215436912       14.7529833844
  H        47.9300207304       14.2187303504        9.7106458612
  H        47.7799557923       14.3741882111        6.4954422199
  H        49.0823336074       18.5518745199       10.8670443499
  H        10.4158390634       14.1343726854        7.9987207914
  H        24.4706639780        3.0248262909        3.9093436065
  H        25.5947210384        4.8837754925        2.6650445583
  H        23.1835884995        7.7475440721        4.7825980995
  H        22.0804985962        5.8793005420        6.0310320878
  H        23.8009478110        5.7747601525        1.2118945005
  H        36.3640823653       32.1930736348        3.9775341557
  H        35.2193334838       30.3792224383        2.7044251542
  H        37.4804519439       27.4379673913        4.8810921970
  H        38.6048179405       29.2650112687        6.1645673333
  H        36.9769641231       29.4589276296        1.2752601131
  H        25.6492007911        8.6134873567        4.6186028260
  H        36.4449477220       32.2462520656       12.1037768242
  H        35.3178444248       30.4362344158       13.3940597398
  H        37.5065283394       27.4875745842       11.1525766187
  H        38.6078490721       29.3096801390        9.8486456755
  H        37.0008051755       29.4776564715       14.8282123776
  H        46.1088571942       26.5873886221       11.3855544625
  H        44.6681923958       35.1161813735        7.8142279602
  H        24.4612133774        3.0269172723       12.0509433139
  H        25.6154728927        4.8630743377       13.2896275812
  H        23.2055635606        7.7617493081       11.2199205326
  H        22.0638551762        5.9139254066        9.9798673554
  H        23.8170759658        5.7724094058       14.7621343321
  H        44.9534463583       34.3896023724        9.6945058053
  H        44.9018900192       34.2068387135        6.4907692676
  H        40.6652798776       33.2083135321       10.8527701744
  H        23.1499691662        1.9577502736        8.0021819155
  H        25.7729441251       19.6753944032        3.9587976621
  H        23.6125644023       19.7449791213        2.7135092037
  H        22.3051396676       16.2166741848        4.7964498165
  H        24.4734662380       16.1590901819        6.0402659582
  H        23.7074070599       17.7432254221        1.2369113371
  H        35.1221770841       15.4341232334        4.0104600372
  H        37.2471803947       15.3618025145        2.7027164221
  H        38.6821589952       18.7886898171        4.8706498482
  H        36.5562647067       18.8379358004        6.1848010830
  H        37.2102186079       17.3154535520        1.2423917278
  H        20.3257355840       17.9888484880        4.6488258384
  H        35.1569775845       15.4175120268       12.0652501577
  H        37.2941532758       15.3329505687       13.3505562245
  H        38.7202213034       18.7659035264       11.1867067737
  H        36.5813685899       18.8275859169        9.8939184326
  H        37.2250043065       17.3060962206       14.7928806290
  H        35.1219865955       26.6858373575       11.3920190579
  H        28.5060597130       21.0687443990        7.8817872119
  H        25.7316732835       19.6848774387       12.1003291832
  H        23.5479241361       19.7548945602       13.3132686355
  H        22.3072625695       16.1781790071       11.2730868323
  H        24.4945651481       16.1245027399       10.0580845940
  H        23.6960983103       17.7348295411       14.7891776137
  H        29.0099582549       21.7089251400        9.7374278460
  H        29.2066841788       21.6933235825        6.5573496284
  H        32.1019925177       18.5605289276       10.9776625917
  H        27.3776164561       19.0296651959        8.0776462021
  H        14.8510601691       19.6804600703       12.0977779194
  H        17.0190780771       19.7454034541       13.3346129805
  H        18.3020546749       16.2042253870       11.2583110009
  H        16.1309660712       16.1562323338       10.0191965365
  H        16.9111982744       17.7535624814       14.8153731494
  H        46.0925639095       15.4302523453       12.0590191164
  H        43.9680861234       15.3537869490       13.3629612022
  H        42.5378978734       18.7934395000       11.2116624314
  H        44.6626696097       18.8440098333        9.8960666561
  H        44.0104672485       17.2867614535       14.8345307711
  H        20.2923244423       17.9483847601       11.4027556061
  H        46.0375739095       15.3740851355        4.0447175477
  H        43.9063367330       15.2967053344        2.7533380208
  H        42.5088726956       18.7730713011        4.8657545640
  H        44.6465444389       18.8360752443        6.1590913502
  H        43.9954103259       17.2694270934        1.2831395555
  H        46.1988644062       26.6825423675        4.6233175612
  H        52.7411376433       21.0626600305        8.1945881069
  H        14.8584464090       19.6896409865        3.9138554500
  H        17.0521423671       19.7791093571        2.7189102681
  H        18.3205435752       16.2324063409        4.7942265635
  H        16.1295293574       16.1679018249        6.0007564576
  H        16.9223194951       17.7654365084        1.2634560766
  H        52.3222338514       21.6736313730        6.2948432390
  H        52.0134388265       21.7025084813        9.4954534755
  H        49.0668483237       18.6074628236        5.2042841595
  H        13.2470018412       19.0166495655        7.9760916141
  H        29.9886522791       12.4428279515       12.1941766676
  H        28.9355590316       10.5087350663       13.3755109485
  H        25.2852124119       11.1734981843       11.2014233493
  H        26.3533642903       13.1011093893       10.0196337530
  H        27.2200632538       11.6426599202       14.7809117671
  H        30.9685275815       22.7737230390       11.9759108261
  H        31.9621912541       24.6519368084       13.2842934329
  H        35.6734521591       24.1447500638       11.1702836211
  H        34.6617311019       22.2713681631        9.8595555677
  H        33.6245026459       23.5940966170       14.7529265056
  H        25.7676190316        8.5770215475       11.3770553479
  H        30.8957596050       22.6854783646        3.9079286230
  H        31.9026017655       24.5727355405        2.6253281882
  H        35.5431888026       24.1464073049        4.8767466427
  H        34.5138757947       22.2732270286        6.1694815590
  H        33.5922764668       23.5804431503        1.2020790962
  H        40.5818577612       17.0575050036        4.6593856496
  H        32.5059691703       14.1520000946        8.2596097193
  H        29.8573954283       12.4472798228        3.9907869420
  H        28.8281560521       10.5652568938        2.7142901447
  H        25.1098083982       11.2113965892        4.7759780971
  H        26.1561793649       13.0904005546        6.0554843727
  H        27.1709704449       11.6636346375        1.2286434073
  H        33.2974494162       14.2200477751        6.4416321368
  H        33.4051989255       14.4274239915        9.5941483489
  H        32.0447995015       18.4802632313        5.0838217765
  H        30.2140070125       14.1464251685        8.0835310491
  H        16.1180443870        2.9626901432       12.1295036623
  H        14.9522949068        4.8194463016       13.3222001460
  H        17.3647301492        7.6856617088       11.2100929852
  H        18.5140162916        5.8184514381       10.0103376125
  H        16.7523904732        5.7389833292       14.7713366609
  H        44.8277075453       32.1401228039       11.9771106839
  H        45.9369328121       30.3412204116       13.3065833360
  H        43.6823414226       27.3780207054       11.1521700917
  H        42.5996914156       29.1899163631        9.8095319559
  H        44.2299890063       29.4365866490       14.7688640313
  H        14.8495801442        8.5453649157       11.3631974924
  H        44.8996582782       32.2339868720        3.9317139422
  H        46.0244548312       30.4128973845        2.6521576220
  H        43.7633444185       27.4840278842        4.8454937024
  H        42.6456427516       29.3177602558        6.1245847100
  H        44.2681419229       29.4703791409        1.2181471857
  H        35.0206534846       26.6310964770        4.6345230728
  H        36.6051887475       35.1339334597        8.1806224207
  H        16.1435333265        3.0126395617        3.9038617646
  H        14.9737640856        4.8559082005        2.6881757866
  H        17.3953749096        7.7470478052        4.7551502016
  H        18.5424427739        5.8932229771        5.9828855317
  H        16.7639105277        5.7551259970        1.2190658866
  H        36.2788375098       34.4819793694        6.2733517738
  H        36.3808626615       34.2091028093        9.4996735914
  H        40.5795431797       33.2021870194        5.1539624871
  H        17.4706405187        1.9471997077        7.9739569806
  H        28.7350560778       18.7868068720       12.2790126378
  H        28.7557753852       18.8062690708        3.6843825263
  H        30.5994110549       15.3785207683        3.8764563109
  H        31.3364723448       15.6122287880       12.5964261025
  H        29.6170779812       19.3447004618       14.8576565072
  H        18.8533500974        0.8689008239       12.3351324349
  H        40.5282425646       35.2290376741        3.9522023417
  H        42.3237098921       34.4190644398        3.5904016450
  H        22.0871965496        0.6921251975       12.3517235306
  H        11.5967915649       18.7125900279       12.3823604655
  H        52.2652172556       18.4311106187        3.6780605076
  H        49.2553189358       16.4764334035        3.5840709403
  H        10.1502685441       15.7983724042       12.2927168100
  H        50.8501555983       17.6927768521        3.9539736749
  H        10.0459457597       17.3948055571       12.0519474676
  H        20.2145425109        0.0019166041       12.0419891470
  H        39.1835104080       36.1240980218        3.6862835919
 Ni        30.3508935619       17.3733391185        2.6670206342
 Ni        30.1458069592       17.3513333954        0.0835426628
 Ni        30.3076817295       17.5555107499       13.4892791505
  O        10.6498641926       14.3651909618        5.4858023594
  O        12.6131238105       14.6574648736        6.5838675851
  O        49.1475048963       16.8459684702        7.9896789230
  O        50.3500486609       20.9363169468        5.6482469364
  O        48.3484401362       20.5932016066        6.6659966224
  O        11.0509071308       17.0540108564        6.5006750583
  O        50.3206325342       20.8817088270       10.4068731422
  O        48.3465820123       20.5866064727        9.3270121374
  O        49.5432748554       18.2484137481       10.0682682321
  O        12.3587040738       18.6246080223        7.9996313833
  O        48.6931421202       14.1486747798        6.7512659298
  O         8.2098281969       14.2104389553        9.3225466551
  O        10.7351703309       14.5068036956       10.6643198863
  O        12.5717082802       14.5827479293        9.3285583972