     576
 i =      254, E =     -4780.0346837257
  C        11.8587813802       14.0535299403        5.7415652915
  C        12.4563142998       12.8906129227        5.0232449839
  C        11.7045350908       12.1715016553        4.0817886063
  C        12.2809166781       11.1093017828        3.3894317084
  C        13.6215559681       10.7396398991        3.6170188371
  C        14.3548180457       11.4434128116        4.5902673304
  C        13.7819297578       12.5083918719        5.2817830858
  C        14.2610999631        9.6489756474        2.8436030562
  C        14.2562808312        9.6568151432        1.4218964318
  C        13.7430272200       10.7589088987        0.6680065711
  C        49.1269348470       21.2331518877        5.8797225555
  C        48.5502158500       22.4011534975        5.1526465904
  C        49.3002471340       23.0684622633        4.1716483204
  C        48.7333231725       24.1076106473        3.4384399716
  C        47.4028088504       24.5093069797        3.6670997407
  C        46.6718581935       23.8604531014        4.6806262220
  C        47.2343046518       22.8155513248        5.4099856914
  C        46.7725266236       25.5869917283        2.8698301919
  C        46.7614579730       25.5573868963        1.4480667407
  C        47.2613955594       24.4423004573        0.7045668223
  C        14.8602334309        8.5704929083        0.7086113483
  C        14.8919585384        8.5970631121        3.5202378324
  C        49.1132431706       21.2034876366       10.1452906441
  C        48.5278559391       22.3648708978       10.8724634555
  C        49.2670726747       23.0255733934       11.8653928063
  C        48.6907197280       24.0600974509       12.5968926861
  C        47.3602918981       24.4568390530       12.3586822641
  C        46.6398798395       23.8119244410       11.3351604508
  C        47.2134606086       22.7760551048       10.6033416059
  C        46.7218188406       25.5318026680       13.1497136156
  C        46.7335527786       25.5281629517       14.5714214409
  C        47.2490729685       24.4289895193       15.3278058256
  C        40.6214106438       17.1371844944       15.3134909781
  C        40.6306336770       17.1410456984       12.5036058803
  C        11.8829723019       14.0865985262       10.2855154355
  C        12.4723065506       12.9108220593       10.9897971193
  C        11.7146832548       12.1774486120       11.9156864054
  C        12.2812415931       11.0949597295       12.5840774070
  C        13.6201388622       10.7213940687       12.3524482460
  C        14.3582460355       11.4371522270       11.3918962614
  C        13.7928458960       12.5183557977       10.7192264505
  C        14.2536817609        9.6245648907       13.1228193030
  C        14.2523857428        9.6444772178       14.5446600054
  C        13.7424470345       10.7533802440       15.2917511527
  C        22.5109682450        3.2440816253        5.7517108269
  C        23.2239820672        4.3481737433        5.0485018118
  C        24.2212587441        4.0655907044        4.1033406684
  C        24.8490149621        5.1031237674        3.4190003668
  C        24.4951079576        6.4456663014        3.6593812450
  C        23.5249213333        6.7198204834        4.6406909579
  C        22.8927131439        5.6840389230        5.3236578611
  C        25.1056093378        7.5502338974        2.8847268601
  C        25.0882496456        7.5413329117        1.4628358217
  C        24.3882177617        6.5432383496        0.7133626656
  C        38.2988516482       31.9278079769        5.8512439075
  C        37.5597216590       30.8386747225        5.1482554340
  C        36.5965480121       31.1446682684        4.1743260736
  C        35.9692659245       30.1261434693        3.4617950591
  C        36.2896303257       28.7751214430        3.7000808950
  C        37.2219807853       28.4766084356        4.7117631893
  C        37.8533520685       29.4940622437        5.4235259328
  C        35.6824092250       27.6857311968        2.9006480011
  C        35.7234182486       27.6998331911        1.4789018595
  C        36.4353087544       28.7010056401        0.7455076036
  C        25.7186178953        8.6089283946        0.7456840497
  C        25.6989243195        8.6256787612        3.5581036042
  C        38.3303016728       31.9611506796       10.1594517253
  C        37.6131309063       30.8879276786       10.9073993869
  C        36.6818290539       31.1969971548       11.9107925841
  C        36.0725229060       30.1794220477       12.6428959308
  C        36.3796070750       28.8262341640       12.3957782855
  C        37.2911319465       28.5270988147       11.3644679798
  C        37.9023677514       29.5411780844       10.6335772326
  C        35.7668514472       27.7271472347       13.1779029769
  C        35.7663317215       27.7211561100       14.6004126767
  C        36.4546056054       28.7119706551       15.3687868153
  C        46.1355393410       26.6207898895       15.2815723080
  C        46.0877951022       26.5801363108       12.4736782927
  C        22.4643931101        3.2562633694       10.2568623055
  C        23.1667193796        4.3636221605       10.9756411454
  C        24.1732461002        4.0743301322       11.9109966157
  C        24.8091453214        5.1020543719       12.6037505519
  C        24.4593278844        6.4496356388       12.3845724610
  C        23.4763407607        6.7322654025       11.4171057739
  C        22.8359238844        5.7047017945       10.7245805751
  C        25.0948604520        7.5450490924       13.1602616063
  C        25.0834791280        7.5381180586       14.5833001807
  C        24.3839573055        6.5429359428       15.3363776189
  C        26.6266235264       17.8608000009        5.7795782792
  C        25.3208003330       17.9047396852        5.0518112173
  C        25.0615581850       18.9007416830        4.0965140719
  C        23.8488398537       18.9208214764        3.4095909663
  C        22.8568370575       17.9501240249        3.6584907136
  C        23.1126977796       16.9770280442        4.6429426527
  C        24.3281276507       16.9500570302        5.3254188701
  C        21.5818850592       17.9377554881        2.8968107783
  C        21.5808885213       17.9152564218        1.4742307082
  C        22.7854476193       17.7863469576        0.7130033039
  C        34.4371796011       17.1982200024        5.9204093634
  C        35.7293213820       17.1546282811        5.1732325781
  C        35.9352116567       16.1911205621        4.1733752392
  C        37.1150081893       16.1846947237        3.4341750454
  C        38.1227444010       17.1383735026        3.6780258697
  C        37.9197652963       18.0816216394        4.7030369966
  C        36.7358917835       18.0953047915        5.4371152699
  C        39.3772952141       17.1501139199        2.8916379527
  C        39.3703843624       17.1688889885        1.4702085429
  C        38.1624633692       17.3036771705        0.7163016751
  C        20.3333452396       17.9359594843        0.7672657339
  C        20.3577350926       17.9425995041        3.5808003428
  C        34.4242160086       17.2169616831       10.2218086844
  C        35.7301594925       17.1401348243       10.9364984127
  C        35.9356416612       16.1904231128       11.9487213054
  C        37.1313670116       16.1749108289       12.6616322657
  C        38.1486920031       17.1097702610       12.3854595780
  C        37.9474227174       18.0325903405       11.3415549160
  C        36.7517782347       18.0520997831       10.6290811317
  C        39.4009261074       17.1373252894       13.1725596458
  C        39.3822453599       17.1643183669       14.5939613182
  C        38.1686373498       17.3004942869       15.3396034915
  C        35.1300017780       26.6427056767       15.3008004242
  C        35.1801073358       26.6563843752       12.4912219906
  C        26.5675921148       17.8276275258       10.3224286514
  C        25.2528889704       17.8738380364       11.0273387207
  C        24.9929216164       18.8736949709       11.9766615517
  C        23.7756031672       18.8990844733       12.6508970371
  C        22.7893875857       17.9243115368       12.3998792512
  C        23.0435640431       16.9496485644       11.4179372670
  C        24.2616776734       16.9222476471       10.7417540164
  C        21.5270623406       17.9054438121       13.1743848543
  C        21.5526024970       17.8967154555       14.5960902647
  C        22.7715734948       17.7774000138       15.3364840485
  C        14.0464045589       17.8289115675       10.2890909377
  C        15.3501640464       17.8861436000       11.0150751367
  C        15.6062762142       18.8900315479       11.9621591893
  C        16.8148820873       18.9114507682       12.6555992122
  C        17.8016257761       17.9317609652       12.4242091658
  C        17.5501347081       16.9519412863       11.4451502403
  C        16.3410503572       16.9259761708       10.7531928120
  C        19.0709474074       17.9155198375       13.1926067436
  C        19.0711170405       17.9152061174       14.6151852320
  C        17.8648683423       17.8195993576       15.3778035535
  C        46.8025040614       17.2179458748       10.1577926155
  C        45.5091738002       17.1539622079       10.8995552898
  C        45.3002721775       16.1758887675       11.8843269301
  C        44.1162036324       16.1568168955       12.6172186159
  C        43.1101020718       17.1158957195       12.3880993854
  C        43.3155461169       18.0723595993       11.3753157689
  C        44.5003607892       18.0953560293       10.6434075435
  C        41.8570710828       17.1308720015       13.1786526845
  C        41.8663171340       17.1396860081       14.6010254815
  C        43.0771987469       17.2321215809       15.3571439910
  C        20.3186376379       17.9253687082       15.3221961562
  C        20.2943217369       17.8943036904       12.5091740319
  C        46.7856100817       17.2325822250        5.8871581129
  C        45.4834209549       17.1310580888        5.1684207863
  C        45.2637802079       16.1362759710        4.2035568934
  C        44.0762043090       16.1140546036        3.4760439260
  C        43.0786957775       17.0838137024        3.6960137723
  C        43.2890146534       18.0486464697        4.6989013582
  C        44.4774675658       18.0771698297        5.4214997352
  C        41.8315201655       17.1111697897        2.9003097829
  C        41.8535899809       17.1276763341        1.4791026891
  C        43.0712335307       17.2237458587        0.7342549084
  C        46.1533589983       26.6372326348        0.7263336092
  C        46.1626031907       26.6561188870        3.5359756434
  C        14.0468360056       17.8326251645        5.7089831429
  C        15.3690408619       17.9090912343        5.0199637257
  C        15.6427148130       18.9251889337        4.0919889612
  C        16.8723629227       18.9642223299        3.4381228733
  C        17.8569610954       17.9862387728        3.6856023772
  C        17.5903059037       16.9995726699        4.6524622905
  C        16.3627306621       16.9601180600        5.3100329762
  C        19.1241523518       17.9615531109        2.9154914075
  C        19.0989159045       17.9378496184        1.4936702113
  C        17.8783505489       17.8297721536        0.7540924279
  C        28.7966610914       14.1186065669       10.4005169857
  C        28.2044533946       12.9355639891       11.0870197450
  C        28.9357500692       12.1984351134       12.0300763148
  C        28.3482007215       11.1128687244       12.6757425349
  C        27.0153921455       10.7418905993       12.4046447978
  C        26.3070447681       11.4595873488       11.4238564283
  C        26.8922744337       12.5434044785       10.7752204994
  C        26.3518968759        9.6561358110       13.1634157610
  C        26.3363713814        9.6806035673       14.5848552707
  C        26.8402439884       10.7915661098       15.3331848827
  C        32.1808865328       21.2373034927       10.1443394064
  C        32.7755460507       22.4055097158       10.8614716128
  C        32.0269613902       23.0831797891       11.8364086164
  C        32.5971554133       24.1223252823       12.5657262906
  C        33.9320920050       24.5123884617       12.3425801431
  C        34.6628041581       23.8538660031       11.3353557471
  C        34.0948802023       22.8095291413       10.6073418528
  C        34.5597989849       25.5867443437       13.1466303027
  C        34.5431531331       25.5587473631       14.5686633454
  C        34.0300842259       24.4438938628       15.3042846286
  C        25.7211164564        8.6035927400       15.3006961695
  C        25.7147573127        8.6068258412       12.4872972112
  C        32.0821913724       21.2018364816        5.8752289032
  C        32.6524301834       22.3637980014        5.1307972135
  C        31.9214302622       23.0121790212        4.1232853568
  C        32.4971767064       24.0499672378        3.3920372736
  C        33.8176412949       24.4699967735        3.6487258707
  C        34.5296830918       23.8350380331        4.6846727621
  C        33.9595865631       22.7934495106        5.4109388464
  C        34.4603567849       25.5541256277        2.8688624741
  C        34.4911030266       25.5427139538        1.4467296926
  C        34.0042892370       24.4367851675        0.6809636056
  C        40.6147163325       17.1352995347        0.7582631538
  C        40.6020937704       17.1385876310        3.5685478368
  C        28.7377679893       14.0629130291        5.8201030689
  C        28.1308907883       12.9153389490        5.0826618378
  C        28.8762462189       12.2025860636        4.1307732264
  C        28.2963987508       11.1475288538        3.4303436514
  C        26.9561864795       10.7764866724        3.6590215268
  C        26.2277670038       11.4751920741        4.6399842979
  C        26.8052888567       12.5323604788        5.3406305721
  C        26.3180453323        9.6855590924        2.8834026571
  C        26.3205287831        9.6956691753        1.4614399131
  C        26.8312473255       10.7996952590        0.7093518543
  C        18.1353616212        3.1809702187       10.3171083203
  C        17.4060308932        4.2781908838       11.0156471700
  C        16.3902476298        3.9998248807       11.9431107957
  C        15.7425158137        5.0397917235       12.6066140411
  C        16.0944329392        6.3835300643       12.3669881361
  C        17.0838370124        6.6530624612       11.4032414402
  C        17.7329433254        5.6157357576       10.7381733398
  C        15.4700973519        7.4912089454       13.1300643332
  C        15.4853547515        7.4904663844       14.5517817101
  C        16.1869193619        6.4968538533       15.3049430109
  C        42.9458104898       31.8594887591       10.0728557617
  C        43.6461429367       30.7718077290       10.8168159286
  C        44.5915572392       31.0931389245       11.8030009868
  C        45.1972497798       30.0876083062       12.5506944945
  C        44.8709345669       28.7345236275       12.3357660367
  C        43.9452570591       28.4201710599       11.3224104405
  C        43.3364626758       29.4253007422       10.5743323852
  C        45.4885456323       27.6552383887       13.1389639845
  C        45.4927437715       27.6808754110       14.5606627413
  C        44.8056743366       28.6889150804       15.3073156197
  C        14.8563923881        8.5629439860       15.2641749474
  C        14.8748878283        8.5630444132       12.4515078348
  C        42.9464636361       31.9615930831        5.8089690249
  C        43.6917511317       30.8854734826        5.0955709197
  C        44.6563734573       31.1913843664        4.1232896936
  C        45.2779238723       30.1717998016        3.4055875354
  C        44.9541685048       28.8214712715        3.6432095616
  C        44.0206592587       28.5238107243        4.6539673351
  C        43.3923541390       29.5405657750        5.3661243677
  C        45.5632057456       27.7240764411        2.8579474468
  C        45.5334192523       27.7173869391        1.4366515931
  C        44.8270163068       28.7075664277        0.6837095665
  C        35.1057540763       26.6334091815        0.7462644551
  C        35.0678869459       26.6127304524        3.5565670059
  C        18.1487225907        3.2469922916        5.7066470090
  C        17.4302104166        4.3438298456        4.9973232667
  C        16.4150153356        4.0525618603        4.0737244433
  C        15.7667107296        5.0831952507        3.3983412492
  C        16.1213233262        6.4284505128        3.6210736825
  C        17.1126726779        6.7118144346        4.5783786401
  C        17.7603391845        5.6829098410        5.2581672228
  C        15.4907778739        7.5241285173        2.8486292077
  C        15.4965162160        7.5074168523        1.4274876634
  C        16.1932389086        6.5057072775        0.6807589707
  H        10.6723489191       12.4654999811        3.9048915722
  H        11.6945674713       10.5506766734        2.6630517208
  H        15.3919328595       11.1690144730        4.7718193958
  H        14.3515077781       13.0718157653        6.0169782191
  H        13.3759971347       11.6310159416        1.2013345064
  H        50.3229365871       22.7483826691        3.9868645549
  H        49.3198317022       24.6228625767        2.6808714368
  H        45.6423871128       24.1612733112        4.8638316857
  H        46.6633003601       22.2903249720        6.1720937731
  H        47.6300234387       23.5759541413        1.2462376357
  H        14.8724294598        8.5883846399        4.6085484983
  H        50.2871311359       22.7027485693       12.0602892609
  H        49.2691391182       24.5755657704       13.3603697644
  H        45.6104680456       24.1091528210       11.1461137517
  H        46.6526355301       22.2538727644        9.8317964067
  H        47.6078963891       23.5518945162       14.7968980326
  H        40.6335886120       17.0968506476       11.4161334272
  H        48.6870151552       14.0950844141        7.7999605327
  H        10.6811382247       12.4663693073       12.0929032179
  H        11.6893690471       10.5243993479       13.2965722724
  H        15.3937762180       11.1594838297       11.2061921905
  H        14.3653182657       13.0879180497        9.9909486420
  H        13.3756039357       11.6219889163       14.7531183623
  H        47.9301475582       14.2185276658        9.7110567336
  H        47.7799979194       14.3735940858        6.4951711815
  H        49.0833293695       18.5521965921       10.8672473434
  H        10.4161228957       14.1343739039        7.9988230583
  H        24.4826562159        3.0265021683        3.9159413729
  H        25.6233519951        4.8835719809        2.6871433866
  H        23.2438164472        7.7532799915        4.8324257805
  H        22.1219935167        5.8864728304        6.0633762042
  H        23.8223778194        5.7879408126        1.2509728003
  H        36.3644139588       32.1886036091        3.9771746513
  H        35.2233358277       30.3685787498        2.7080258250
  H        37.4774943581       27.4366428730        4.9043545864
  H        38.5988213480       29.2697604720        6.1828617040
  H        36.9971319740       29.4508530751        1.2947745152
  H        25.7251700584        8.6108270399        4.6461965428
  H        36.4550097893       32.2412051118       12.1138736532
  H        35.3439573079       30.4259235418       13.4121147856
  H        37.5417406728       27.4869516985       11.1668226497
  H        38.6271898497       29.3139576354        9.8556143140
  H        37.0321517219       29.4699470207       14.8473542868
  H        46.1092211490       26.5875413001       11.3856415000
  H        44.6682593788       35.1161194332        7.8139689800
  H        24.4478282475        3.0350944728       12.0772085157
  H        25.5923014076        4.8694434429       13.3222153314
  H        23.1939135975        7.7677439377       11.2380568304
  H        22.0613129213        5.9214059214        9.9925222330
  H        23.8142680904        5.7879377590       14.8023994420
  H        44.9537753196       34.3903166548        9.6951097904
  H        44.9017903017       34.2068668934        6.4905595175
  H        40.6662019825       33.2091244299       10.8531798279
  H        23.1506661580        1.9576842742        8.0047878197
  H        25.8190394571       19.6607780054        3.9155980694
  H        23.6531778150       19.6995393133        2.6754343878
  H        22.3590645431       16.2182747979        4.8439550564
  H        24.5355220241       16.1852291582        6.0702210598
  H        23.7274506927       17.6614984286        1.2394093471
  H        35.1546249552       15.4561553942        3.9894537885
  H        37.2736105331       15.4306613495        2.6662430637
  H        38.6896272158       18.8261596007        4.8951678431
  H        36.5620860003       18.8387368667        6.2116448757
  H        37.2259208363       17.4403062104        1.2496783972
  H        20.3660091525       17.9829490013        4.6686669851
  H        35.1419632561       15.4819742342       12.1751013000
  H        37.2895695437       15.4340083850       13.4421240796
  H        38.7255315829       18.7609184714       11.1225551846
  H        36.5760996162       18.7820956692        9.8423939109
  H        37.2360899266       17.4336932359       14.7992055274
  H        35.1591421822       26.6826560055       11.4033695326
  H        28.5007470926       21.0790425821        7.8881026798
  H        25.7576793232       19.6222356797       12.1704159406
  H        23.5742112973       19.6783005575       13.3827503220
  H        22.2903412837       16.1901540525       11.2185431085
  H        24.4744790657       16.1576717004        9.9984130107
  H        23.7026476458       17.6469477869       14.7928649849
  H        28.9992346603       21.7248136076        9.7478504848
  H        29.1872406361       21.7216675011        6.5705611602
  H        32.0940202573       18.5925017268       10.9803728256
  H        27.4031747256       19.0700297174        8.0796151035
  H        14.8477753645       19.6492438463       12.1393357340
  H        17.0099095795       19.6964362956       13.3831174532
  H        18.3015799763       16.1876869776       11.2575377582
  H        16.1355289257       16.1563139328       10.0130225420
  H        16.9215468974       17.7049551263       14.8517753420
  H        46.0831845647       15.4441330767       12.0693988945
  H        43.9565136817       15.3909224833       13.3730286503
  H        42.5474985045       18.8211667756       11.1929415119
  H        44.6744702062       18.8491017228        9.8790465053
  H        44.0183084301       17.3402534884       14.8255516050
  H        20.2871886350       17.9234196305       11.4210382946
  H        46.0391042002       15.3945449521        4.0255226283
  H        43.9087017799       15.3415079618        2.7287016432
  H        42.5240390298       18.8019065533        4.8754464404
  H        44.6607936629       18.8410567057        6.1730989563
  H        44.0078682682       17.3244151032        1.2750143342
  H        46.1995183786       26.6826864111        4.6234167871
  H        52.7412524137       21.0626970662        8.1946991823
  H        14.8817830944       19.6783371062        3.8995015636
  H        17.0827444145       19.7553824644        2.7216460825
  H        18.3412755986       16.2379328046        4.8521557067
  H        16.1424636169       16.1849978081        6.0400323861
  H        16.9451955849       17.7229231164        1.2989203310
  H        52.3227743087       21.6733341556        6.2941304053
  H        52.0135066963       21.7022819743        9.4956901029
  H        49.0678755517       18.6077725345        5.2039176610
  H        13.2476530688       19.0161917082        7.9774345957
  H        29.9616972614       12.4891185320       12.2446560858
  H        28.9174050805       10.5404645460       13.4049758013
  H        25.2771839913       11.1838170019       11.2066339962
  H        26.3420437127       13.1181139069       10.0343113911
  H        27.2079002575       11.6600798769       14.7951028179
  H        31.0021161638       22.7686825205       12.0185998466
  H        32.0106438604       24.6462141459       13.3173356285
  H        35.6958253660       24.1450559208       11.1561914669
  H        34.6656013380       22.2763584585        9.8504126802
  H        33.6796887626       23.5740459761       14.7560426434
  H        25.7456942854        8.5898137150       11.3992539319
  H        30.9046803652       22.6853233824        3.9169862406
  H        31.9219893464       24.5524691468        2.6173708695
  H        35.5518283909       24.1462732305        4.8901181324
  H        34.5168575678       22.2819425445        6.1921097255
  H        33.6350078437       23.5607328704        1.2064258141
  H        40.5974383421       17.0968018648        4.6560795687
  H        32.5122538002       14.1577858288        8.2559745839
  H        29.9127553279       12.4843862612        3.9596335957
  H        28.8815332805       10.5917955287        2.7007772485
  H        25.1907995441       11.2011460238        4.8231193404
  H        26.2396411217       13.0882538899        6.0847126241
  H        27.1915558176       11.6739589408        1.2437204495
  H        33.2987611466       14.1989531519        6.4442059497
  H        33.4035899071       14.3798274967        9.6189867487
  H        32.1012249431       18.5386126943        5.1739559384
  H        30.2138552435       14.1896432590        8.0848259350
  H        16.1181543553        2.9633258959       12.1294885875
  H        14.9530113668        4.8203939049       13.3222074339
  H        17.3662761356        7.6859410419       11.2101536089
  H        18.5150109485        5.8184461498       10.0103751168
  H        16.7534549134        5.7395105707       14.7714286015
  H        44.8277878597       32.1402225461       11.9772406660
  H        45.9370440001       30.3413863891       13.3067013318
  H        43.6826893836       27.3780861887       11.1521892445
  H        42.6000219963       29.1899251126        9.8095098692
  H        44.2302800813       29.4366733420       14.7690403081
  H        14.8511973437        8.5463674069       11.3632861870
  H        44.8999346926       32.2340612600        3.9318442170
  H        46.0248611293       30.4130366316        2.6523848063
  H        43.7637303002       27.4840765680        4.8455443368
  H        42.6458349405       29.3177426410        6.1245422957
  H        44.2685402781       29.4704642251        1.2183080207
  H        35.0173691905       26.6261135064        4.6437208989
  H        36.6051793778       35.1340097026        8.1806545989
  H        16.1439084173        3.0129939658        3.9039978459
  H        14.9743813784        4.8563409703        2.6882639634
  H        17.3961490225        7.7472852685        4.7553059598
  H        18.5431483657        5.8934054238        5.9829889774
  H        16.7647290309        5.7554816787        1.2191568561
  H        36.2786680300       34.4823980498        6.2731137581
  H        36.3806129496       34.2091977376        9.4996357322
  H        40.5793092977       33.2019747099        5.1538744805
  H        17.4711339871        1.9472257150        7.9741156923
  H        28.8954100053       19.3104137940       12.4669727121
  H        29.8153227813       19.5781899531        3.5475699508
  H        30.6805323132       15.4902449241        3.8178508042
  H        30.9337188500       15.6253605885       12.5270366847
  H        27.9298380972       18.0582530544       15.0267108583
  H        29.4241987660       15.7090743871       15.0442912339
  H        31.5063261976       19.8849994694        1.4708129261
  H        33.0856964461       16.7637988040        1.9913274539
  H        27.5101070327       18.2140475106        1.9839859625
  H        33.4067226064       17.5341258237       14.4508291222
  H        18.8533233429        0.8689935518       12.3351760224
  H        40.5281487234       35.2290524708        3.9520833212
  H        42.3238303358       34.4186057009        3.5906558543
  H        22.0877261439        0.6919885244       12.3516184024
  H        11.5969267609       18.7127921083       12.3823833777
  H        52.2649967031       18.4313584878        3.6772597132
  H        49.2553907739       16.4767653462        3.5844030700
  H        10.1501813114       15.7982217688       12.2927398462
  H        50.8502658784       17.6924405070        3.9542280641
  H        10.0461195451       17.3946376385       12.0519392184
  H        20.2146066880        0.0022378325       12.0420127762
  H        39.1837183870       36.1245399740        3.6865322093
 Ni        30.8552362862       17.6762800958        2.6660262885
 Ni        31.3674151528       16.8446543424        0.0820072699
 Ni        30.0115225343       18.7935291345       -0.0845568403
 Ni        30.1032973329       17.6204553815       13.4907192656
  O        10.6499650754       14.3651011649        5.4858451611
  O        12.6132141462       14.6575410623        6.5838769572
  O        49.1477991006       16.8458499320        7.9897593378
  O        50.3503102559       20.9357137580        5.6480270833
  O        48.3485963861       20.5932897034        6.6659440556
  O        11.0517170235       17.0537952278        6.5007168583
  O        50.3209742336       20.8816609129       10.4068665960
  O        48.3467489903       20.5867317210        9.3271236470