     565
 i =      188, E =     -4543.0439892059
  C        11.8586509401       14.0535394750        5.7415142270
  C        12.4560241318       12.8904962769        5.0232671852
  C        11.7043116668       12.1717467917        4.0814847658
  C        12.2805403917       11.1094465901        3.3891544560
  C        13.6210511199       10.7394106590        3.6169333975
  C        14.3542417771       11.4428112757        4.5905187107
  C        13.7814805334       12.5078618474        5.2820276069
  C        14.2604240473        9.6486691090        2.8434999147
  C        14.2554589217        9.6564225604        1.4217849070
  C        13.7422818534       10.7585400248        0.6678825631
  C        49.1266020170       21.2333802982        5.8798305363
  C        48.5496835764       22.4012258035        5.1527546359
  C        49.2996808966       23.0684583016        4.1716645794
  C        48.7326924636       24.1074920937        3.4383787107
  C        47.4021963506       24.5092133433        3.6670976939
  C        46.6712793138       23.8603909341        4.6806729817
  C        47.2337607991       22.8155671998        5.4101204684
  C        46.7719509050       25.5868396909        2.8697447518
  C        46.7609307495       25.5572205018        1.4479784985
  C        47.2608637907       24.4421008814        0.7045236116
  C        14.8591591910        8.5699358287        0.7085272470
  C        14.8912736259        8.5967398833        3.5201282416
  C        49.1129101771       21.2034592170       10.1452392708
  C        48.5274541927       22.3647883718       10.8723587983
  C        49.2665969898       23.0253651630       11.8654314459
  C        48.6902572729       24.0598708379       12.5969365387
  C        47.3598853663       24.4567186764       12.3586005253
  C        46.6395221634       23.8119233704       11.3349678308
  C        47.2131080344       22.7760635212       10.6031367911
  C        46.7214265073       25.5316397042       13.1496681889
  C        46.7331652838       25.5280112824       14.5713747043
  C        47.2485950030       24.4288015903       15.3277637722
  C        40.6138009571       17.0566439466       15.3146662559
  C        40.6294797765       17.0911694076       12.5043054555
  C        11.8827081523       14.0863792052       10.2853905031
  C        12.4716464013       12.9103315519       10.9894956786
  C        11.7140409282       12.1775554241       11.9158716525
  C        12.2802948351       11.0949365459       12.5842797663
  C        13.6189117323       10.7206223251       12.3522287056
  C        14.3569203611       11.4356558541       11.3910535853
  C        13.7918115308       12.5169843344       10.7183667813
  C        14.2523527955        9.6238226775       13.1226888421
  C        14.2510661203        9.6437949495       14.5445393846
  C        13.7415719341       10.7529082190       15.2916259518
  C        22.5034482243        3.2424833409        5.7469252827
  C        23.2005593829        4.3454058820        5.0297448633
  C        24.1986568567        4.0629117257        4.0858684024
  C        24.8157749308        5.1003808845        3.3927719681
  C        24.4483663609        6.4406072728        3.6237406237
  C        23.4736319417        6.7148219705        4.6000263003
  C        22.8529251577        5.6793138459        5.2924913937
  C        25.0570463190        7.5453617943        2.8511158916
  C        25.0579890031        7.5328213210        1.4304516522
  C        24.3692771567        6.5306912378        0.6765540268
  C        38.3000482440       31.9271361208        5.8486660587
  C        37.5627938793       30.8391922215        5.1405759786
  C        36.5977965490       31.1484247034        4.1692577466
  C        35.9685511219       30.1328989638        3.4539529715
  C        36.2882818180       28.7805211817        3.6859582309
  C        37.2246644536       28.4786657970        4.6931863473
  C        37.8577964375       29.4932410235        5.4081125082
  C        35.6728776846       27.6938908809        2.8879628931
  C        35.7010443619       27.7108715849        1.4657163221
  C        36.4111555935       28.7104219526        0.7286505600
  C        25.6952962705        8.6002028819        0.7197133878
  C        25.6354917765        8.6245664644        3.5296736756
  C        38.3268858876       31.9607050890       10.1571950469
  C        37.6008161834       30.8887650690       10.8995098665
  C        36.6668426260       31.2010277911       11.8996529476
  C        36.0484259716       30.1858585478       12.6274864262
  C        36.3484429541       28.8309843882       12.3802413358
  C        37.2614837342       28.5287329614       11.3509840274
  C        37.8818708347       29.5405943438       10.6240180654
  C        35.7299358998       27.7352374328       13.1636480270
  C        35.7301285530       27.7319680051       14.5864460813
  C        36.4241103375       28.7212169026       15.3517939749
  C        46.1351547020       26.6206524283       15.2815011172
  C        46.0874785797       26.5799958627       12.4736083268
  C        22.4664686311        3.2534746826       10.2501293847
  C        23.1764196013        4.3590474827       10.9588244943
  C        24.1887751617        4.0670468245       11.8865089181
  C        24.8296264267        5.0941782013       12.5739318622
  C        24.4766934317        6.4404891984       12.3555009140
  C        23.4898183143        6.7259979729       11.3937760499
  C        22.8448691763        5.6991167033       10.7058804284
  C        25.1092269614        7.5333417798       13.1333189728
  C        25.0854581154        7.5257049330       14.5550133029
  C        24.3793382963        6.5292898523       15.3003162821
  C        26.5642126859       17.8313901571        5.7858647354
  C        25.2639903722       17.8988606993        5.0588064495
  C        25.0126956786       18.9157326784        4.1246730039
  C        23.8049607293       18.9505431668        3.4317851601
  C        22.8155153083       17.9721951237        3.6534781365
  C        23.0618856509       16.9783723307        4.6190963875
  C        24.2710459950       16.9384748041        5.3098100041
  C        21.5491775112       17.9707625055        2.8822283742
  C        21.5570811256       17.9661164563        1.4602386542
  C        22.7670051605       17.8558156443        0.7046294956
  C        34.4139707693       17.2145243337        5.9133750626
  C        35.7092997557       17.1449212053        5.1733301432
  C        35.9119691009       16.1618355382        4.1918924260
  C        37.0946843535       16.1323777675        3.4572383825
  C        38.1080739372       17.0851208217        3.6818128633
  C        37.9082580369       18.0476547167        4.6901178271
  C        36.7237846156       18.0816287600        5.4233088594
  C        39.3630521600       17.0822212614        2.8932899544
  C        39.3578781363       17.0812227226        1.4706774732
  C        38.1501251066       17.1919923343        0.7121043812
  C        20.3128818670       17.9849361189        0.7485058011
  C        20.3236595908       17.9618436823        3.5611043393
  C        34.4351334098       17.2378639027       10.1852634078
  C        35.7375275384       17.1331805627       10.9070625439
  C        35.9478832912       16.1403637816       11.8758632559
  C        37.1380334796       16.1039781200       12.5987980468
  C        38.1485706996       17.0595062809       12.3740751990
  C        37.9451183077       18.0254399008       11.3704287174
  C        36.7543470381       18.0663977105       10.6503670866
  C        39.3978270549       17.0692938061       13.1694896093
  C        39.3757934185       17.0747994780       14.5914382416
  C        38.1585880318       17.1868289468       15.3350899353
  C        35.0907566303       26.6569962570       15.2897682974
  C        35.1409426991       26.6635960265       12.4799000213
  C        26.5616119928       17.8270137767       10.3244446792
  C        25.2471910703       17.8860194287       11.0230946884
  C        24.9754810741       18.9167142106       11.9353423017
  C        23.7583079325       18.9513356784       12.6087040807
  C        22.7848176657       17.9571032023       12.3902531574
  C        23.0488952720       16.9523135071       11.4421291434
  C        24.2673532240       16.9143252468       10.7680359411
  C        21.5215234433       17.9493146400       13.1623221495
  C        21.5424390860       17.9541378723       14.5834316951
  C        22.7600708744       17.8506106924       15.3281576325
  C        14.0450392759       17.8326179232       10.2838604358
  C        15.3508431571       17.8998399678       11.0012521529
  C        15.6083580697       18.9180776798       11.9319900042
  C        16.8184304618       18.9489862068       12.6209751344
  C        17.8019417085       17.9642583754       12.4002819064
  C        17.5501685422       16.9709562148       11.4356793602
  C        16.3397152561       16.9359921942       10.7475100600
  C        19.0679482190       17.9553886997       13.1706913455
  C        19.0611402162       17.9619229101       14.5923153706
  C        17.8507489285       17.8646675214       15.3483177352
  C        46.8017206374       17.2166264512       10.1583938829
  C        45.5089041830       17.1457705680       10.9017824457
  C        45.3055645769       16.1600944360       11.8804615244
  C        44.1221806909       16.1286473913       12.6140655497
  C        43.1096303011       17.0828343554       12.3927726392
  C        43.3103157176       18.0485038960       11.3874281096
  C        44.4946197242       18.0836281978       10.6542772151
  C        41.8548381238       17.0806896800       13.1818645729
  C        41.8604066507       17.0757931311       14.6046081583
  C        43.0689903525       17.1746029235       15.3635720814
  C        20.3052060985       17.9778707779       15.3041992022
  C        20.2927515668       17.9297214860       12.4917039460
  C        46.7822087253       17.2308069331        5.8875390334
  C        45.4778957593       17.1208065857        5.1710865763
  C        45.2594225337       16.1157014715        4.2162135170
  C        44.0704184088       16.0806114496        3.4910859407
  C        43.0678835105       17.0475532035        3.7021300486
  C        43.2773627164       18.0234881529        4.6947941660
  C        44.4675268345       18.0646784619        5.4154643279
  C        41.8193313125       17.0594449705        2.9055652794
  C        41.8422867138       17.0636147240        1.4837781947
  C        43.0604706668       17.1656663240        0.7405889463
  C        46.1529094553       26.6371136722        0.7262569238
  C        46.1620601272       26.6559782524        3.5358927040
  C        14.0410357536       17.8308662851        5.7071379311
  C        15.3557411967       17.9070795971        5.0086948739
  C        15.6214767451       18.9331841491        4.0897995995
  C        16.8453841377       18.9783309180        3.4272862821
  C        17.8287961728       17.9962608307        3.6588673003
  C        17.5686790187       16.9962113066        4.6131763679
  C        16.3469745478       16.9509594189        5.2799262619
  C        19.0946278149       17.9849809835        2.8901407661
  C        19.0752026551       17.9765589258        1.4689979992
  C        17.8576395330       17.8713002891        0.7245564841
  C        28.8183812143       14.0850964984       10.3705360579
  C        28.2254298291       12.9041785850       11.0567893662
  C        28.9593335287       12.1627628569       11.9941869248
  C        28.3684375767       11.0852670709       12.6493213524
  C        27.0316133171       10.7245583163       12.3870014505
  C        26.3203687354       11.4443451700       11.4103700184
  C        26.9074963462       12.5233604982       10.7565624583
  C        26.3656599647        9.6417224289       13.1454144085
  C        26.3401625626        9.6672229701       14.5658558281
  C        26.8412726749       10.7775821152       15.3168232185
  C        32.1762267203       21.2373325326       10.1137631288
  C        32.7587690258       22.4047623545       10.8412389584
  C        31.9983714642       23.0847680593       11.8057176749
  C        32.5597207202       24.1253229861       12.5411040232
  C        33.8968242440       24.5171184834       12.3331984155
  C        34.6396736226       23.8549329049       11.3369517705
  C        34.0817449388       22.8083501891       10.6045297346
  C        34.5173943816       25.5968500696       13.1376198786
  C        34.4981328873       25.5739822457       14.5600187794
  C        33.9807495750       24.4633367560       15.2986408933
  C        25.7156976464        8.5920459791       15.2761216502
  C        25.7330589333        8.5939146812       12.4643160714
  C        32.0693876366       21.1896328630        5.8423011507
  C        32.6453042608       22.3599427236        5.1125487004
  C        31.9099410055       23.0188631243        4.1148473876
  C        32.4812078402       24.0647314134        3.3926413990
  C        33.8039199211       24.4806682779        3.6444450051
  C        34.5198284296       23.8371573186        4.6726053301
  C        33.9522733557       22.7893590970        5.3933493007
  C        34.4435939228       25.5656559141        2.8624494168
  C        34.4604888258       25.5582042122        1.4394986062
  C        33.9621507051       24.4560434787        0.6755516993
  C        40.6042280757       17.0551784104        0.7604550369
  C        40.5881588311       17.0870841195        3.5711569651
  C        28.6764032111       14.0323201706        5.8259454566
  C        28.0608360347       12.8931243493        5.0861258332
  C        28.8147942923       12.1739389678        4.1459185019
  C        28.2365967470       11.1267393575        3.4353338984
  C        26.8899149430       10.7708536682        3.6437836914
  C        26.1509913480       11.4753879119        4.6121833175
  C        26.7274142765       12.5261425120        5.3232806052
  C        26.2607708341        9.6828306569        2.8604010613
  C        26.2867211486        9.6891944936        1.4394759065
  C        26.8131122174       10.7895001667        0.6925219631
  C        18.1351462630        3.1809073403       10.3171385705
  C        17.4054520886        4.2779585750       11.0156244484
  C        16.3897344889        3.9992861383       11.9430535211
  C        15.7416916435        5.0390727117       12.6065321260
  C        16.0932530681        6.3828900317       12.3669151720
  C        17.0825713889        6.6527032736       11.4031769270
  C        17.7319909218        5.6155703861       10.7381289399
  C        15.4687541458        7.4904592037       13.1300001665
  C        15.4840226347        7.4897637725       14.5517193869
  C        16.1858253459        6.4962979583       15.3048482817
  C        42.9457003482       31.8594604202       10.0728465204
  C        43.6460424357       30.7717261448       10.8167533387
  C        44.5914601850       31.0930454978       11.8029288900
  C        45.1971540689       30.0874756454       12.5505655521
  C        44.8706875833       28.7344211152       12.3356994656
  C        43.9450358160       28.4200975271       11.3223195393
  C        43.3362136270       29.4252573210       10.5742962749
  C        45.4882930132       27.6551330691       13.1388769725
  C        45.4924112748       27.6807499866       14.5605699222
  C        44.8053591934       28.6888324729       15.3071811325
  C        14.8552612717        8.5623793896       15.2640841236
  C        14.8733729396        8.5621646695       12.4514135111
  C        42.9464312752       31.9615841341        5.8090486172
  C        43.6916200717       30.8854206872        5.0955701574
  C        44.6561225944       31.1913132210        4.1231771848
  C        45.2776314836       30.1717094486        3.4054696021
  C        44.9537536443       28.8214137882        3.6430716604
  C        44.0204143458       28.5237486301        4.6539809889
  C        43.3921653543       29.5405380868        5.3661426568
  C        45.5627631670       27.7239823966        2.8578603215
  C        45.5329903800       27.7172860103        1.4365665443
  C        44.8266593240       28.7074823389        0.6835773152
  C        35.0739493960       26.6476821425        0.7358428985
  C        35.0612613754       26.6206818563        3.5466847843
  C        18.1483476572        3.2468298146        5.7065774895
  C        17.4297005544        4.3435943544        4.9972039926
  C        16.4145290437        4.0522548987        4.0736191206
  C        15.7660679735        5.0828212213        3.3982634771
  C        16.1206581114        6.4280802608        3.6209579975
  C        17.1120578378        6.7115836872        4.5781578714
  C        17.7598056655        5.6827053867        5.2578993013
  C        15.4900132344        7.5237337758        2.8485772115
  C        15.4955962633        7.5069684926        1.4274368044
  C        16.1922314186        6.5052338519        0.6806629893
  H        10.6722427612       12.4660508488        3.9043974309
  H        11.6942120759       10.5510860318        2.6625520104
  H        15.3912273980       11.1680704870        4.7722960179
  H        14.3509892686       13.0709104113        6.0175708559
  H        13.3755364963       11.6308035196        1.2011516237
  H        50.3223670352       22.7483733131        3.9868838235
  H        49.3191457426       24.6227217566        2.6807494273
  H        45.6418224609       24.1612449072        4.8639219350
  H        46.6627954699       22.2903770553        6.1722910575
  H        47.6294122554       23.5757156746        1.2461955053
  H        14.8718778591        8.5880758437        4.6084408703
  H        50.2865996543       22.7024218038       12.0603971303
  H        49.2686236953       24.5752453472       13.3605121432
  H        45.6101568873       24.1092636444       11.1458363930
  H        46.6523080171       22.2539885535        9.8314911751
  H        47.6073840183       23.5516819074       14.7968773242
  H        40.6351101199       17.0647085508       11.4162567198
  H        48.6871170673       14.0951515978        7.8000259976
  H        10.6807498867       12.4671130643       12.0934618297
  H        11.6884251729       10.5248926506       13.2971875987
  H        15.3921987629       11.1573243422       11.2049404655
  H        14.3642628387       13.0859702000        9.9896279915
  H        13.3748013787       11.6215537464       14.7529990798
  H        47.9300325924       14.2187624091        9.7106592931
  H        47.7799659624       14.3742343601        6.4954736066
  H        49.0824156553       18.5519254729       10.8670364098
  H        10.4159064160       14.1343718652        7.9987465152
  H        24.4698422442        3.0246178487        3.9084933687
  H        25.5932407513        4.8835277624        2.6634702235
  H        23.1827302743        7.7473655380        4.7816265741
  H        22.0802004898        5.8791996925        6.0307134890
  H        23.7999665471        5.7750896123        1.2100718975
  H        36.3646086275       32.1930324638        3.9770140690
  H        35.2202424751       30.3790241067        2.7037422737
  H        37.4809859020       27.4380278781        4.8810927504
  H        38.6049986157       29.2652243716        6.1646918130
  H        36.9781371507       29.4584893355        1.2750846029
  H        25.6473483361        8.6128903973        4.6179965817
  H        36.4454044181       32.2461258891       12.1040531972
  H        35.3186626563       30.4358859893       13.3944360295
  H        37.5069708401       27.4875668580       11.1522025371
  H        38.6079766673       29.3098874938        9.8482121603
  H        37.0020988291       29.4771335157       14.8279963701
  H        46.1088840384       26.5874264348       11.3855711882
  H        44.6682248614       35.1161927490        7.8142251698
  H        24.4616879498        3.0271628696       12.0509119623
  H        25.6163872096        4.8633487342       13.2889724814
  H        23.2079884481        7.7620942190       11.2176728016
  H        22.0657621088        5.9142864843        9.9782681246
  H        23.8171468467        5.7730744983       14.7603269279
  H        44.9534521585       34.3896252581        9.6945483213
  H        44.9018994869       34.2068310663        6.4907508790
  H        40.6653536073       33.2083787876       10.8528195735
  H        23.1500242360        1.9577841775        8.0021417435
  H        25.7728497475       19.6753230479        3.9577886050
  H        23.6124099786       19.7436241130        2.7124683825
  H        22.3069603924       16.2150852840        4.7962207078
  H        24.4757199461       16.1585682898        6.0394892874
  H        23.7074079894       17.7413906743        1.2360531446
  H        35.1246579106       15.4328866132        4.0138587618
  H        37.2492631280       15.3618570248        2.7050087683
  H        38.6811894360       18.7921954347        4.8694632935
  H        36.5556254374       18.8400743579        6.1844828615
  H        37.2102064876       17.3151866001        1.2425774614
  H        20.3270660304       17.9874354519        4.6493472147
  H        35.1613129785       15.4125046214       12.0603999740
  H        37.2975403014       15.3306276204       13.3470482480
  H        38.7176666378       18.7700027004       11.1896881834
  H        36.5785356648       18.8306453405        9.8971103748
  H        37.2249201678       17.3053871777       14.7927221914
  H        35.1227612861       26.6858016421       11.3918775408
  H        28.5045881980       21.0704791113        7.8846303307
  H        25.7294615312       19.6829443042       12.0994622139
  H        23.5467993266       19.7519576533       13.3141422340
  H        22.3032677771       16.1790520654       11.2691288674
  H        24.4895974316       16.1266646001       10.0521137018
  H        23.6951911001       17.7328877687       14.7883297245
  H        29.0095161166       21.7101459512        9.7374660533
  H        29.2076043192       21.6928782031        6.5589585481
  H        32.1133571492       18.5633904359       10.9695721565
  H        27.3744997219       19.0265259161        8.0739459996
  H        14.8493595970       19.6787872602       12.0999309181
  H        17.0169771335       19.7429437393       13.3377071549
  H        18.3014824148       16.2041988169       11.2582430304
  H        16.1306800338       16.1568131606       10.0184230304
  H        16.9103000978       17.7503596384       14.8172490429
  H        46.0923915442       15.4311772261       12.0598761207
  H        43.9678140058       15.3557362141       13.3638319104
  H        42.5381749638       18.7944521962       11.2106201030
  H        44.6630853336       18.8440194052        9.8951477571
  H        44.0104082168       17.2902687740       14.8341033344
  H        20.2898123227       17.9474836721       11.4033369534
  H        46.0372807228       15.3753816680        4.0434715326
  H        43.9059567566       15.2994460450        2.7520342068
  H        42.5100464358       18.7757549929        4.8656040151
  H        44.6478292518       18.8373319815        6.1589418650
  H        43.9954538789       17.2734763166        1.2827816803
  H        46.1989216318       26.6825913936        4.6233357852
  H        52.7411888785       21.0626576385        8.1945743506
  H        14.8593855619       19.6889776555        3.9134481533
  H        17.0534192746       19.7774230983        2.7190114807
  H        18.3208296606       16.2317167338        4.7966250256
  H        16.1294665534       16.1681260199        6.0024981808
  H        16.9223791261       17.7619518097        1.2653636796
  H        52.3223017296       21.6736472506        6.2947845395
  H        52.0134988481       21.7025887008        9.4954529550
  H        49.0669979190       18.6074988917        5.2042026908
  H        13.2470854766       19.0165896317        7.9761543520
  H        29.9896867521       12.4455535907       12.1966814207
  H        28.9369586992       10.5106118529       13.3772776935
  H        25.2874597668       11.1739115514       11.2012886488
  H        26.3553393982       13.1021560806       10.0204412693
  H        27.2204807390       11.6430439299       14.7815176264
  H        30.9701540493       22.7729691483       11.9737304076
  H        31.9634817708       24.6505179276       13.2841475949
  H        35.6746068014       24.1461169273       11.1692961382
  H        34.6629924369       22.2737820254        9.8566518512
  H        33.6243685944       23.5945028172       14.7526088342
  H        25.7704568718        8.5775540756       11.3765073672
  H        30.8940439402       22.6891279052        3.9095358397
  H        31.9020917913       24.5752071204        2.6261981549
  H        35.5433556392       24.1454211028        4.8757179381
  H        34.5132934742       22.2724217743        6.1683107486
  H        33.5916568373       23.5810645143        1.2020037215
  H        40.5823342578       17.0605345382        4.6592098823
  H        32.5065827835       14.1506187261        8.2558930359
  H        29.8559672977       12.4466187069        3.9915238019
  H        28.8264300104       10.5652571844        2.7141302102
  H        25.1086487612       11.2104523226        4.7771999059
  H        26.1556523280       13.0884744630        6.0578003202
  H        27.1698599599       11.6639240031        1.2292279075
  H        33.2980119397       14.2219120854        6.4424728818
  H        33.4055167351       14.4255687593        9.5928137449
  H        32.0497224300       18.4887161635        5.0900208891
  H        30.2122159912       14.1453239507        8.0869159545
  H        16.1179857637        2.9627045278       12.1294467874
  H        14.9522778759        4.8194659519       13.3221594967
  H        17.3647838628        7.6856474658       11.2101344806
  H        18.5140338881        5.8184676580       10.0103660988
  H        16.7523714984        5.7389654867       14.7713219622
  H        44.8276949269       32.1401390361       11.9771247247
  H        45.9369154806       30.3412393444       13.3066109024
  H        43.6823583763       27.3780232563       11.1521915318
  H        42.5996977003       29.1899187098        9.8095259592
  H        44.2299886862       29.4365937030       14.7688818896
  H        14.8496587573        8.5454135284       11.3631954417
  H        44.8996791433       32.2339952289        3.9317430163
  H        46.0244578187       30.4129175649        2.6521475304
  H        43.7634145116       27.4840244457        4.8455427120
  H        42.6457407434       29.3177642032        6.1246729955
  H        44.2681741358       29.4703709839        1.2181816495
  H        35.0212880213       26.6311824755        4.6343183688
  H        36.6052422471       35.1339697065        8.1806294269
  H        16.1434994206        3.0126609495        3.9039141753
  H        14.9737159499        4.8559312508        2.6882242493
  H        17.3955389605        7.7470619115        4.7550318139
  H        18.5425835832        5.8932327867        5.9827414898
  H        16.7638793961        5.7551258708        1.2190575322
  H        36.2788764270       34.4819688675        6.2733527132
  H        36.3809501910       34.2090561201        9.4996353686
  H        40.5796279461       33.2022681442        5.1539318282
  H        17.4706799987        1.9472552709        7.9739642134
  H        28.7244530061       18.8775474246       12.3113468351
  H        28.7808759275       18.9097792948        3.6579632502
  H        30.6538419369       15.3648971953        3.8380645748
  H        31.4153803304       15.6390299677       12.6124321787
  H        29.5591243385       19.3959510353       14.8289866877
  H        18.8536239039        0.8690510034       12.3351459322
  H        40.5282299868       35.2290542251        3.9521953229
  H        42.3237502239       34.4190940909        3.5903775199
  H        22.0872448818        0.6921445108       12.3517382817
  H        11.5968516737       18.7125382197       12.3823546570
  H        52.2652773768       18.4311284792        3.6780493878
  H        49.2552803139       16.4765058248        3.5841127410
  H        10.1502457098       15.7983783772       12.2927373183
  H        50.8502283254       17.6927899181        3.9539672008
  H        10.0459719102       17.3948305406       12.0519419955
  H        20.2148538530        0.0020266066       12.0419637568
  H        39.1835428481       36.1241704957        3.6863584086
 Ni        30.3534736394       17.4248623596        2.6675974549
 Ni        30.1776543545       17.3818691021        0.0820876376
 Ni        30.3515589478       17.5777239157       13.4887830864
  O        10.6498462762       14.3651705765        5.4858140560
  O        12.6131107552       14.6574477226        6.5838783633
  O        49.1475065267       16.8459138415        7.9896911412
  O        50.3500611977       20.9362543555        5.6482102892
  O        48.3484162455       20.5931785521        6.6659217772
  O        11.0509668663       17.0540110941        6.5006881024
  O        50.3206274774       20.8817169795       10.4068819712
  O        48.3465568008       20.5866343432        9.3270219781
  O        49.5432254112       18.2483612443       10.0682406270
  O        12.3587351135       18.6246420333        7.9996497035
  O        48.6931481758       14.1486671415        6.7512603725
  O         8.2098085679       14.2104807909        9.3225019211
  O        10.7351796144       14.5067784495       10.6643512070
  O        12.5717055232       14.5827533719        9.3285605635