     562
 i =      247, E =     -4525.7738685374
  C        11.8585455049       14.0533930690        5.7415117739
  C        12.4559225623       12.8903894096        5.0232361015
  C        11.7043136658       12.1717713302        4.0812772880
  C        12.2805968222       11.1094903541        3.3889685334
  C        13.6210448028       10.7393306752        3.6169339031
  C        14.3540769122       11.4425289119        4.5907931525
  C        13.7812675123       12.5075477081        5.2822969904
  C        14.2604592010        9.6486317061        2.8435015050
  C        14.2555513826        9.6564357651        1.4217950065
  C        13.7424673597       10.7585892178        0.6678774573
  C        49.1265118841       21.2334177789        5.8797416241
  C        48.5496197793       22.4011910914        5.1526432855
  C        49.2996462309       23.0685311688        4.1716423959
  C        48.7327030550       24.1076201417        3.4384125957
  C        47.4021317865       24.5091947846        3.6669976260
  C        46.6712429213       23.8604405889        4.6806385380
  C        47.2337010007       22.8155634978        5.4100210647
  C        46.7719066580       25.5868752969        2.8697152103
  C        46.7610223132       25.5572784089        1.4479551126
  C        47.2608891076       24.4421420381        0.7044800068
  C        14.8593805490        8.5700311734        0.7085309811
  C        14.8913760662        8.5967416980        3.5201306923
  C        49.1128463291       21.2034797091       10.1452731814
  C        48.5274421859       22.3647804521       10.8723695849
  C        49.2665976964       23.0253580398       11.8654373962
  C        48.6902463364       24.0598515445       12.5969404193
  C        47.3598819522       24.4567397728       12.3586025666
  C        46.6396191783       23.8120933968       11.3348015530
  C        47.2131830661       22.7762384548       10.6029562398
  C        46.7215054842       25.5317378386       13.1496076882
  C        46.7332357360       25.5280453246       14.5713082866
  C        47.2486331860       24.4288302113       15.3277163198
  C        40.6179834036       17.0692189205       15.3189795136
  C        40.6361208646       17.1175355448       12.5086694844
  C        11.8826866799       14.0862785586       10.2854396037
  C        12.4716223026       12.9102084311       10.9894699048
  C        11.7140868494       12.1775702422       11.9160168908
  C        12.2803685310       11.0949766111       12.5844463910
  C        13.6189174965       10.7205080344       12.3522043876
  C        14.3568431707       11.4354065402       11.3908485989
  C        13.7917019469       12.5167051840       10.7181385283
  C        14.2523609938        9.6237578861       13.1227044758
  C        14.2512698015        9.6438524887       14.5445478365
  C        13.7416115619       10.7528994584       15.2916214643
  C        22.5027627948        3.2421637045        5.7465890722
  C        23.1987757280        4.3450839356        5.0287419414
  C        24.1969633963        4.0628809120        4.0849185841
  C        24.8133771064        5.1005542463        3.3915710382
  C        24.4449713683        6.4404617719        3.6224423003
  C        23.4699700110        6.7143989943        4.5984853388
  C        22.8499830199        5.6787231141        5.2911341945
  C        25.0533430625        7.5457985912        2.8507160626
  C        25.0545596127        7.5343806535        1.4300263005
  C        24.3680361700        6.5317798614        0.6747012551
  C        38.3001744849       31.9274853556        5.8486988490
  C        37.5635723996       30.8397901297        5.1400932299
  C        36.6001968305       31.1491923996        4.1672475910
  C        35.9719277270       30.1337048174        3.4511141370
  C        36.2908666091       28.7814020433        3.6843814791
  C        37.2254970663       28.4793814345        4.6931787839
  C        37.8578217043       29.4939112168        5.4086981744
  C        35.6762661276       27.6945024826        2.8865368955
  C        35.7061774496       27.7098842602        1.4643904167
  C        36.4163179883       28.7091425933        0.7270280709
  C        25.6901296923        8.6034888244        0.7205346361
  C        25.6315017259        8.6242093164        3.5309005569
  C        38.3268970304       31.9606872857       10.1569715292
  C        37.6010197616       30.8883374931       10.8986295142
  C        36.6683133660       31.1996807762       11.9002086834
  C        36.0508707675       30.1837875656       12.6278302635
  C        36.3506413706       28.8291487725       12.3789330209
  C        37.2620375874       28.5278428136       11.3479279731
  C        37.8814768993       29.5404080256       10.6212056537
  C        35.7339123418       27.7327270172       13.1626376521
  C        35.7356405630       27.7293223940       14.5854001111
  C        36.4294581013       28.7191059007       15.3501695624
  C        46.1352007960       26.6206644902       15.2814416467
  C        46.0874569298       26.5800418781       12.4735604039
  C        22.4675503843        3.2539550364       10.2502389928
  C        23.1792157633        4.3599579103       10.9577803408
  C        24.1918762657        4.0687757084       11.8855513898
  C        24.8334364978        5.0963222737       12.5721764986
  C        24.4813443538        6.4429396840       12.3534081189
  C        23.4946965496        6.7275745347       11.3910225933
  C        22.8491352156        5.7003302912       10.7038519456
  C        25.1126749462        7.5365554803       13.1323146606
  C        25.0853362263        7.5289328848       14.5542022041
  C        24.3798873717        6.5311571428       15.2983897476
  C        26.5649233957       17.8190423991        5.7567943909
  C        25.2599051079       17.8734623575        5.0373534237
  C        24.9984522888       18.8892745931        4.1048217412
  C        23.7869682811       18.9174154658        3.4194386116
  C        22.8061900094       17.9314962270        3.6447618711
  C        23.0626171642       16.9383003388        4.6079413537
  C        24.2749029421       16.9066634722        5.2937598441
  C        21.5397763491       17.9248787893        2.8753056245
  C        21.5494937569       17.9241997280        1.4537553601
  C        22.7607339157       17.8173404090        0.6997176012
  C        34.4172656994       17.2116833602        5.9146311128
  C        35.7123913380       17.1403854642        5.1762586599
  C        35.9046862866       16.1691508070        4.1812472759
  C        37.0876679681       16.1382405553        3.4473618831
  C        38.1093937364       17.0786860950        3.6849040055
  C        37.9188704206       18.0295377842        4.7062559916
  C        36.7349201183       18.0644900654        5.4396871631
  C        39.3636402431       17.0776848903        2.8961187333
  C        39.3595005450       17.0833183028        1.4734021704
  C        38.1521546131       17.1944048528        0.7140610612
  C        20.3065264517       17.9474309491        0.7411027901
  C        20.3142378984       17.9156429335        3.5532312047
  C        34.4477657206       17.2419817622       10.1801688753
  C        35.7486513331       17.1428309463       10.9051052628
  C        35.9764094624       16.1321625548       11.8516328108
  C        37.1633453134       16.1038687162       12.5800603383
  C        38.1562350601       17.0821210096       12.3777432852
  C        37.9379579768       18.0655809218       11.3948108983
  C        36.7483368314       18.1007515438       10.6725774937
  C        39.4049856016       17.0920982443       13.1736200137
  C        39.3807883162       17.0889813887       14.5949932328
  C        38.1621882948       17.1933856450       15.3370496989
  C        35.0977112227       26.6538438594       15.2891873107
  C        35.1447122416       26.6609160104       12.4794699021
  C        26.5627921717       17.8238656458       10.3242102605
  C        25.2490699609       17.8767801351       11.0253926896
  C        24.9682668514       18.9133936881       11.9280793401
  C        23.7503714320       18.9438229576       12.6006987662
  C        22.7851865524       17.9402448572       12.3888514806
  C        23.0584669093       16.9285013179       11.4511683070
  C        24.2780280859       16.8942323261       10.7789301791
  C        21.5200475570       17.9305496756       13.1578397092
  C        21.5389593595       17.9278715685       14.5783872102
  C        22.7557745487       17.8199352845       15.3234647240
  C        14.0442817309       17.8325651843       10.2825639378
  C        15.3508487246       17.8985934369       10.9976476953
  C        15.6108639764       18.9156980825       11.9286295347
  C        16.8218842671       18.9434204193       12.6158588775
  C        17.8023535885       17.9565263493       12.3923676889
  C        17.5485160252       16.9650631356       11.4267595428
  C        16.3371643770       16.9331682444       10.7406440251
  C        19.0674508769       17.9416048346       13.1629655453
  C        19.0580961399       17.9390829472       14.5841445283
  C        17.8461307353       17.8399044250       15.3375303570
  C        46.8029871766       17.2179156933       10.1592957264
  C        45.5118597964       17.1516921901       10.9049728259
  C        45.3073969781       16.1691250546       11.8863843924
  C        44.1250097857       16.1433296645       12.6216121324
  C        43.1153061990       17.1002292612       12.3989544243
  C        43.3173676832       18.0630328486       11.3912418680
  C        44.5005093618       18.0924418222       10.6564622583
  C        41.8607706785       17.1014298047       13.1874958786
  C        41.8650811134       17.0914708771       14.6100555204
  C        43.0731012454       17.1879059745       15.3701617322
  C        20.3009646962       17.9484446236       15.2973743154
  C        20.2927779703       17.9169427283       12.4850496545
  C        46.7824467541       17.2301808695        5.8886020798
  C        45.4777359714       17.1186330327        5.1740002469
  C        45.2604798521       16.1145436665        4.2178580637
  C        44.0712466338       16.0789026807        3.4933545531
  C        43.0677041829       17.0440835703        3.7069694239
  C        43.2755643440       18.0183940611        4.7014505002
  C        44.4661425778       18.0603830941        5.4211320787
  C        41.8198840949       17.0569801985        2.9098585745
  C        41.8441621645       17.0675815635        1.4883953495
  C        43.0630333188       17.1738072269        0.7469888951
  C        46.1530199894       26.6371531740        0.7261926881
  C        46.1620154623       26.6560332056        3.5358384178
  C        14.0389483704       17.8269534943        5.7053988569
  C        15.3512963954       17.8930855262        5.0024834654
  C        15.6220470698       18.9163031397        4.0821854288
  C        16.8448662664       18.9513869548        3.4173296781
  C        17.8207915923       17.9619611089        3.6485209987
  C        17.5553843915       16.9639158676        4.6031089008
  C        16.3348660975       16.9286831288        5.2720526957
  C        19.0863554216       17.9436562218        2.8806513959
  C        19.0681049593       17.9387708553        1.4597988505
  C        17.8510993949       17.8394701158        0.7136486496
  C        28.8010125299       14.1190566833       10.3996690524
  C        28.2112094606       12.9322685752       11.0804599782
  C        28.9411441358       12.2049025901       12.0317050468
  C        28.3571903004       11.1163669909       12.6751158852
  C        27.0297384906       10.7350391930       12.3932217944
  C        26.3237848953       11.4425483724       11.4037129952
  C        26.9057035193       12.5286336519       10.7568046182
  C        26.3654006658        9.6482727751       13.1476489801
  C        26.3339551766        9.6741021724       14.5682243684
  C        26.8273607743       10.7867166330       15.3211024654
  C        32.1789394768       21.2392959768       10.1091094708
  C        32.7624774771       22.4043105553       10.8393527927
  C        32.0058226271       23.0764002019       11.8121420623
  C        32.5679213213       24.1158209581       12.5484726573
  C        33.9020624681       24.5138792593       12.3335122639
  C        34.6411895683       23.8587979154       11.3297320131
  C        34.0825235487       22.8135095486       10.5961813714
  C        34.5233270123       25.5931241087       13.1376811171
  C        34.5062545463       25.5697467645       14.5601235268
  C        33.9920604621       24.4580027875       15.2993729195
  C        25.7117895335        8.5965659974       15.2768423150
  C        25.7375145598        8.5979838758       12.4651651590
  C        32.0715049946       21.1942655518        5.8434401032
  C        32.6472224973       22.3648123000        5.1149227763
  C        31.9140185316       23.0191076498        4.1126566009
  C        32.4862024934       24.0636265319        3.3893699829
  C        33.8072932502       24.4823232339        3.6448733596
  C        34.5209084995       23.8431721146        4.6773420435
  C        33.9525788582       22.7966871506        5.3991691785
  C        34.4480129010       25.5658597382        2.8621807862
  C        34.4675820165       25.5561064679        1.4393510357
  C        33.9727698342       24.4518355884        0.6762603096
  C        40.6066876997       17.0614444128        0.7644163654
  C        40.5884602378       17.0799444671        3.5745390549
  C        28.6777474785       14.0335945805        5.8247897417
  C        28.0616179719       12.8927185659        5.0870422316
  C        28.8139767390       12.1718026164        4.1468397506
  C        28.2337203156       11.1251015844        3.4368901564
  C        26.8866325898       10.7708770358        3.6463172200
  C        26.1498454287       11.4761551173        4.6157201745
  C        26.7282221625       12.5265843315        5.3258212250
  C        26.2556714820        9.6837941196        2.8628707158
  C        26.2790683938        9.6926241668        1.4420454395
  C        26.7998935850       10.7963588211        0.6966880677
  C        18.1352278201        3.1808622420       10.3171648104
  C        17.4055465553        4.2779621897       11.0156864339
  C        16.3897034490        3.9992930806       11.9429660270
  C        15.7416658076        5.0391017434       12.6064292158
  C        16.0934592009        6.3828886582       12.3670074940
  C        17.0828940521        6.6527073073       11.4033891227
  C        17.7323183640        5.6155500961       10.7383553047
  C        15.4688530861        7.4904597883       13.1300113977
  C        15.4843297100        7.4898978245       14.5517224116
  C        16.1860209255        6.4963594856       15.3048588943
  C        42.9456906920       31.8594923190       10.0728259372
  C        43.6460469898       30.7717620484       10.8167617355
  C        44.5916341220       31.0930803280       11.8027717929
  C        45.1973502702       30.0875260562       12.5504161423
  C        44.8707533926       28.7344938475       12.3356590074
  C        43.9449637130       28.4201354403       11.3224263565
  C        43.3361373467       29.4252977105       10.5744131812
  C        45.4883843840       27.6552253717       13.1388376023
  C        45.4925453033       27.6808242289       14.5605278015
  C        44.8054557150       28.6888910249       15.3071173810
  C        14.8553601740        8.5623827484       15.2640958920
  C        14.8735013496        8.5621695762       12.4514279182
  C        42.9463595311       31.9615714584        5.8089797727
  C        43.6914937198       30.8853937754        5.0954305446
  C        44.6562473807       31.1913002997        4.1233001261
  C        45.2776899703       30.1717108161        3.4055113325
  C        44.9537148372       28.8214298060        3.6430112340
  C        44.0199871962       28.5237514805        4.6535471554
  C        43.3918122062       29.5405271192        5.3657881210
  C        45.5627378832       27.7240188639        2.8577657320
  C        45.5330287161       27.7173008025        1.4364720392
  C        44.8267781165       28.7075678818        0.6835070416
  C        35.0804627409       26.6454990532        0.7351633548
  C        35.0640757290       26.6220977629        3.5458211412
  C        18.1483879331        3.2467956352        5.7066166019
  C        17.4297348847        4.3435946368        4.9971978205
  C        16.4144865789        4.0522476866        4.0737170751
  C        15.7661344879        5.0828459426        3.3983064477
  C        16.1207728734        6.4280920032        3.6209406874
  C        17.1122922092        6.7115510672        4.5780258888
  C        17.7599778526        5.6826749032        5.2578425196
  C        15.4900708577        7.5237268628        2.8485584947
  C        15.4958519302        7.5070747723        1.4274172509
  C        16.1924383377        6.5052882209        0.6806699080
  H        10.6722949588       12.4661527693        3.9040269616
  H        11.6943515618       10.5512339045        2.6622233960
  H        15.3909762058       11.1676043175        4.7727989694
  H        14.3506309544       13.0703744354        6.0181197869
  H        13.3756135097       11.6308049111        1.2011367759
  H        50.3223457580       22.7484723163        3.9869166313
  H        49.3191367506       24.6228195913        2.6807532417
  H        45.6417433456       24.1612089843        4.8637840374
  H        46.6626863310       22.2903532427        6.1721322011
  H        47.6293787091       23.5757398238        1.2461621906
  H        14.8718649459        8.5879782253        4.6084400093
  H        50.2865649780       22.7023561005       12.0604815274
  H        49.2685561986       24.5751770860       13.3605918024
  H        45.6102936226       24.1095058808       11.1455838009
  H        46.6524198825       22.2542583606        9.8312248351
  H        47.6073467766       23.5516666417       14.7968485374
  H        40.6421918395       17.0965982152       11.4205107068
  H        48.6870581868       14.0950309720        7.8000193032
  H        10.6808282371       12.4671761790       12.0937583471
  H        11.6885589531       10.5249858260       13.2974511836
  H        15.3920470724       11.1569173967       11.2045277199
  H        14.3640490155       13.0855486086        9.9892047211
  H        13.3748569309       11.6215508209       14.7529984043
  H        47.9300949053       14.2182259488        9.7107982342
  H        47.7799087780       14.3737374627        6.4953357567
  H        49.0825646119       18.5522283199       10.8671662008
  H        10.4157916116       14.1343139901        7.9987218047
  H        24.4688800047        3.0247154588        3.9079708374
  H        25.5910834699        4.8842069792        2.6623880722
  H        23.1784836312        7.7468232619        4.7797347998
  H        22.0771643056        5.8780811181        6.0293755031
  H        23.7994442777        5.7748016284        1.2070380483
  H        36.3678144364       32.1938504363        3.9743274695
  H        35.2249008323       30.3796783138        2.6995781000
  H        37.4809534855       27.4386590893        4.8817899142
  H        38.6038612349       29.2660258671        6.1664548816
  H        36.9829522703       29.4576862419        1.2731821298
  H        25.6441787465        8.6105531312        4.6191798139
  H        36.4472253230       32.2445827065       12.1060182937
  H        35.3221613856       30.4329761902       13.3960494152
  H        37.5071665164       27.4868590409       11.1477309000
  H        38.6065120111       29.3105044059        9.8441670403
  H        37.0072351211       29.4748828882       14.8259583194
  H        46.1088979095       26.5874601255       11.3855261213
  H        44.6681965712       35.1161762681        7.8142111965
  H        24.4644819466        3.0289878737       12.0512218063
  H        25.6199977305        4.8652152985       13.2873747660
  H        23.2131382751        7.7635620707       11.2137760995
  H        22.0701797398        5.9157551511        9.9761330604
  H        23.8198130981        5.7740957896       14.7573844707
  H        44.9535474700       34.3897312901        9.6946031410
  H        44.9019031507       34.2068499358        6.4907670619
  H        40.6651878700       33.2083253184       10.8527973780
  H        23.1499847351        1.9578122298        8.0020921597
  H        25.7539398006       19.6528233270        3.9350798606
  H        23.5843152051       19.7100591247        2.7024506931
  H        22.3135366421       16.1697510207        4.7871089416
  H        24.4882136495       16.1285982333        6.0229736816
  H        23.6997143431       17.6998909571        1.2328205739
  H        35.1081211822       15.4538714942        3.9893076734
  H        37.2343989359       15.3765490780        2.6847397526
  H        38.6982645564       18.7649510353        4.8948756771
  H        36.5732166861       18.8143560840        6.2106679796
  H        37.2109403318       17.3131109130        1.2432604762
  H        20.3165207463       17.9399216964        4.6414847841
  H        35.2108045093       15.3765891040       12.0123527438
  H        37.3352851244       15.3181717379       13.3125748285
  H        38.6980228129       18.8269414288       11.2319507794
  H        36.5596346419       18.8781272191        9.9360374405
  H        37.2285878355       17.3095421002       14.7940373270
  H        35.1244320901       26.6837716979       11.3914977382
  H        28.5047561584       21.0789744739        7.8799703074
  H        25.7148576014       19.6890658760       12.0821948170
  H        23.5306183387       19.7486745666       13.2988642012
  H        22.3188051263       16.1482155605       11.2841494039
  H        24.5077338575       16.1022498764       10.0701184595
  H        23.6907653469       17.7055997314       14.7828159002
  H        28.9941810475       21.7188173372        9.7429717223
  H        29.1943435430       21.7013026824        6.5452595557
  H        32.1202241096       18.5855600076       10.8912390227
  H        27.3647226829       19.0285906430        8.0632219972
  H        14.8531300266       19.6772651066       12.0984025206
  H        17.0232334767       19.7354257976       13.3339626818
  H        18.2983148769       16.1971854427       11.2478211610
  H        16.1249985693       16.1554719753       10.0109369965
  H        16.9064154624       17.7302825150       14.8042273699
  H        46.0923127581       15.4382763341       12.0663080351
  H        43.9688371235       15.3726878081       13.3733155484
  H        42.5473259828       18.8110052968       11.2138745157
  H        44.6707115701       18.8503869756        9.8953263732
  H        44.0148427441       17.3063122238       14.8419114622
  H        20.2912766085       17.9400024071       11.3967848218
  H        46.0395630151       15.3759139174        4.0434992673
  H        43.9074031244       15.2991192873        2.7527166526
  H        42.5068898369       18.7688760781        4.8739312733
  H        44.6459266755       18.8319634515        6.1658203488
  H        43.9972717587       17.2803010913        1.2907281658
  H        46.1987863928       26.6825812518        4.6232864493
  H        52.7411660982       21.0626318291        8.1946084285
  H        14.8652246378       19.6776749840        3.9071377043
  H        17.0582355803       19.7482609220        2.7081704594
  H        18.3021904856       16.1939123178        4.7852749727
  H        16.1121277342       16.1481823971        5.9954916252
  H        16.9150711931       17.7297076154        1.2531002167
  H        52.3222340932       21.6735943360        6.2947645162
  H        52.0135022230       21.7026450357        9.4953632697
  H        49.0667883703       18.6075689103        5.2042950799
  H        13.2470460473       19.0164280619        7.9753775863
  H        29.9613643751       12.5100106105       12.2537967111
  H        28.9236513277       10.5504780944       13.4115213319
  H        25.2983760125       11.1567651146       11.1786722616
  H        26.3580565499       13.0958240345       10.0083558335
  H        27.2013757329       11.6549055343       14.7869055073
  H        30.9803666037       22.7587464783       11.9860032069
  H        31.9744833480       24.6351241157       13.2978344579
  H        35.6738700208       24.1548118962       11.1567117097
  H        34.6605785421       22.2848726718        9.8416279428
  H        33.6383706328       23.5875109753       14.7542701853
  H        25.7789731695        8.5809024470       11.3774887599
  H        30.8999312467       22.6856931588        3.9040689203
  H        31.9092937279       24.5705493675        2.6189411912
  H        35.5433129226       24.1535956266        4.8827777471
  H        34.5118721530       22.2823713613        6.1771094915
  H        33.6044344628       23.5762001856        1.2031784832
  H        40.5819896694       17.0480081680        4.6624195582
  H        32.5092117583       14.1487754962        8.2456793086
  H        29.8557734800       12.4424620632        3.9925183774
  H        28.8221457313       10.5626427079        2.7152516029
  H        25.1075208927       11.2121623153        4.7823521854
  H        26.1579870635       13.0893776173        6.0611514930
  H        27.1523562707       11.6713391280        1.2352039268
  H        33.2972026679       14.2181908871        6.4396567993
  H        33.4046439597       14.4011196881        9.5988243338
  H        32.0874584773       18.4994296770        5.1114208487
  H        30.1971427233       14.1396005333        8.0802078135
  H        16.1178321330        2.9627203020       12.1292479365
  H        14.9521637070        4.8195270466       13.3219767498
  H        17.3652829355        7.6856386129       11.2105030698
  H        18.5145252091        5.8184018579       10.0107408018
  H        16.7525559084        5.7390278620       14.7713224681
  H        44.8279601784       32.1401641868       11.9769077534
  H        45.9372234796       30.3412521374       13.3063638509
  H        43.6821602824       27.3780810391       11.1523847629
  H        42.5994781326       29.1900070311        9.8097689670
  H        44.2301592275       29.4366916028       14.7688029829
  H        14.8497086959        8.5453065400       11.3632107489
  H        44.8999205679       32.2339812576        3.9320086628
  H        46.0247175018       30.4129151530        2.6523912840
  H        43.7628075162       27.4840411950        4.8449188761
  H        42.6451333758       29.3177772697        6.1240714522
  H        44.2682898791       29.4704635428        1.2181097546
  H        35.0220724595       26.6342576641        4.6333580831
  H        36.6052454170       35.1339480182        8.1806008267
  H        16.1434254872        3.0126550977        3.9040769529
  H        14.9737044626        4.8559541297        2.6883557570
  H        17.3958196052        7.7470236859        4.7548463410
  H        18.5428330458        5.8931719316        5.9826135353
  H        16.7640584858        5.7551731526        1.2190891036
  H        36.2789745407       34.4819095968        6.2734443595
  H        36.3809266102       34.2090903804        9.4996720057
  H        40.5795775576       33.2022519775        5.1539822120
  H        17.4707497755        1.9472268666        7.9740460387
  H        28.7413310389       18.8077869906       12.1921164270
  H        28.7501391341       18.6960959880        3.7655291750
  H        30.7551586688       15.3778271085        3.7592613315
  H        32.4148920411       16.2806643343       12.3644166020
  H        29.3197755006       19.1661594178       14.7278838527
  H        18.8537960563        0.8690509419       12.3351691659
  H        40.5284641118       35.2289927853        3.9521651583
  H        42.3236441787       34.4188695069        3.5903178203
  H        22.0873383618        0.6922284462       12.3516796997
  H        11.5966335928       18.7128019707       12.3825287101
  H        52.2648005892       18.4312418724        3.6776322717
  H        49.2550629214       16.4765064820        3.5841198832
  H        10.1506268957       15.7982913488       12.2923637477
  H        50.8499107045       17.6926602539        3.9540362137
  H        10.0461472010       17.3947944266       12.0518857855
  H        20.2150612110        0.0020337075       12.0419247819
  H        39.1838297184       36.1243845104        3.6863910999
 Ni        30.6107916146       17.6126504274        2.7474467434
 Ni        30.2675420847       17.3831168437        0.2557886188
 Ni        30.5606661041       17.5962993494       13.2374829804
  O        10.6498130121       14.3651990197        5.4857415324
  O        12.6130196286       14.6573450119        6.5838545800
  O        49.1475875952       16.8459446840        7.9896963078
  O        50.3500573914       20.9363299457        5.6483544113
  O        48.3484190278       20.5932353463        6.6659488753
  O        11.0508099488       17.0541740301        6.5005955464
  O        50.3206432816       20.8817211337       10.4068435062
  O        48.3465282407       20.5866550121        9.3270380533
  O        49.5431536276       18.2484496299       10.0683117933
  O        12.3586709288       18.6246482995        7.9996411831
  O        48.6931603508       14.1486581987        6.7512842132
  O         8.2098365361       14.2103785182        9.3225350365
  O        10.7351990132       14.5067354284       10.6643978173
  O        12.5716434813       14.5826522627        9.3285482378