     564
 i =      442, E =     -4680.1233886461
  C        11.8586663861       14.0534174519        5.7415704868
  C        12.4560622467       12.8904258824        5.0233105579
  C        11.7044365530       12.1717707950        4.0813848582
  C        12.2807420882       11.1095241983        3.3890496726
  C        13.6212000541       10.7393971746        3.6169958508
  C        14.3542607813       11.4426522034        4.5907864899
  C        13.7814403837       12.5076617434        5.2823065228
  C        14.2605995327        9.6486594891        2.8435937490
  C        14.2557532046        9.6565082829        1.4218871973
  C        13.7427684430       10.7586962666        0.6679531397
  C        49.1266392079       21.2333277908        5.8797347821
  C        48.5497917146       22.4011573154        5.1526373859
  C        49.2997221643       23.0682828833        4.1714239045
  C        48.7327707843       24.1073749029        3.4381913368
  C        47.4023032704       24.5091779309        3.6669813379
  C        46.6714277754       23.8604502256        4.6806535950
  C        47.2339031247       22.8155924049        5.4100437155
  C        46.7720476202       25.5868408337        2.8696996779
  C        46.7610965221       25.5572453774        1.4479387963
  C        47.2610615795       24.4421827439        0.7044234575
  C        14.8594664250        8.5700404625        0.7086199708
  C        14.8914024199        8.5967078759        3.5202259625
  C        49.1130427032       21.2034546143       10.1453239484
  C        48.5277255437       22.3648696345       10.8723698318
  C        49.2667920878       23.0252727594       11.8656250975
  C        48.6905070354       24.0598705277       12.5970444951
  C        47.3602317981       24.4569674854       12.3585323122
  C        46.6400257142       23.8124322374       11.3346206612
  C        47.2135448034       22.7764979539       10.6028556279
  C        46.7217631404       25.5318854144       13.1495857578
  C        46.7334518286       25.5281534973       14.5712918671
  C        47.2488500889       24.4289143088       15.3276620569
  C        40.6171235866       17.0846244886       15.3050361706
  C        40.6257756405       17.1085636237       12.4947394975
  C        11.8828105421       14.0863752886       10.2855014184
  C        12.4718875112       12.9104261058       10.9896281783
  C        11.7143455288       12.1775155242       11.9159620760
  C        12.2807565740       11.0949591171       12.5843554716
  C        13.6194419780       10.7208135484       12.3523488471
  C        14.3573698093       11.4360224300       11.3912340142
  C        13.7921381136       12.5173076958       10.7185621986
  C        14.2529206846        9.6240151756       13.1227940445
  C        14.2516570828        9.6440028126       14.5446377445
  C        13.7420924309       10.7531018440       15.2916980076
  C        22.5102099438        3.2439935215        5.7508347147
  C        23.2217083787        4.3475699403        5.0456353597
  C        24.2167103999        4.0641550044        4.0983168011
  C        24.8433504727        5.1010932310        3.4121582762
  C        24.4905785244        6.4439143190        3.6526390071
  C        23.5224630472        6.7188089694        4.6358100717
  C        22.8914343631        5.6836671199        5.3208083674
  C        25.1002988276        7.5480514571        2.8768141781
  C        25.0829938753        7.5386227842        1.4550537567
  C        24.3836915058        6.5396358265        0.7062085061
  C        38.2979430496       31.9278571524        5.8515316369
  C        37.5557486891       30.8400699702        5.1493815073
  C        36.5895402938       31.1490670083        4.1792894936
  C        35.9571522387       30.1328757678        3.4680111152
  C        36.2753046099       28.7807144000        3.7029264712
  C        37.2113173991       28.4791208073        4.7104384768
  C        37.8475931751       29.4943747066        5.4213765731
  C        35.6616539978       27.6940548897        2.9041196138
  C        35.6986497506       27.7093316412        1.4821823767
  C        36.4114638898       28.7093331118        0.7481282242
  C        25.7129676056        8.6063776072        0.7375611662
  C        25.6939361481        8.6236068065        3.5493198808
  C        38.3294871848       31.9600181778       10.1602613637
  C        37.6109360916       30.8870606585       10.9087947357
  C        36.6762327016       31.1971408187       11.9089968586
  C        36.0638439728       30.1808694409       12.6407011246
  C        36.3706408835       28.8266442441       12.3976482102
  C        37.2861595308       28.5264931119       11.3699081027
  C        37.9002180673       29.5393648298       10.6390095204
  C        35.7535480894       27.7291866221       13.1801343375
  C        35.7454867814       27.7273136175       14.6030434312
  C        36.4323064763       28.7190905370       15.3714439439
  C        46.1353184912       26.6207113303       15.2814453657
  C        46.0878011565       26.5802472099       12.4735424804
  C        22.4638532143        3.2549671932       10.2549321638
  C        23.1662564621        4.3613880676       10.9722366151
  C        24.1738313885        4.0707453560       11.9057825822
  C        24.8099951019        5.0980330151       12.5980827062
  C        24.4583617887        6.4449170326       12.3794072332
  C        23.4744801647        6.7289482110       11.4136322452
  C        22.8338439420        5.7018689617       10.7213997300
  C        25.0935744803        7.5394736665       13.1543956632
  C        25.0805776587        7.5334312926       14.5767845071
  C        24.3803866072        6.5384804100       15.3294488385
  C        26.5600767015       17.8253786391        5.7874590120
  C        25.2587664411       17.8879746509        5.0619330548
  C        25.0052164843       18.9009418091        4.1241606046
  C        23.7981828041       18.9296743464        3.4299826568
  C        22.8114344251       17.9489781854        3.6539150384
  C        23.0593864618       16.9599801128        4.6239579800
  C        24.2680850321       16.9260918152        5.3159065217
  C        21.5463068650       17.9426652536        2.8809209168
  C        21.5562358928       17.9387192998        1.4589257432
  C        22.7670258599       17.8279103471        0.7048512234
  C        34.4146195458       17.2215912522        5.8786150549
  C        35.7163915900       17.1585485396        5.1514104005
  C        35.9271864799       16.1807342082        4.1665445801
  C        37.1133792786       16.1574268588        3.4389823753
  C        38.1215681523       17.1128116061        3.6733078328
  C        37.9156587936       18.0686746945        4.6864366046
  C        36.7275160055       18.0953559456        5.4139461731
  C        39.3754162107       17.1165852020        2.8849452372
  C        39.3665469049       17.1168412766        1.4625745178
  C        38.1567937352       17.2293432385        0.7072084671
  C        20.3132639972       17.9601693110        0.7452621935
  C        20.3197822643       17.9337082171        3.5578609628
  C        34.4326312181       17.2389698049       10.1825191718
  C        35.7328294219       17.1412857598       10.9083509357
  C        35.9525386489       16.1443836015       11.8708434480
  C        37.1427705999       16.1149497719       12.5938805064
  C        38.1450934073       17.0795189451       12.3723050176
  C        37.9330180582       18.0497598206       11.3750345121
  C        36.7411679084       18.0852254148       10.6569177103
  C        39.3964710610       17.0918247645       13.1637314819
  C        39.3774791427       17.1027009763       14.5851523589
  C        38.1618613021       17.2197207845       15.3303190234
  C        35.1044234570       26.6517927632       15.3043474086
  C        35.1705357329       26.6553997940       12.4943024666
  C        26.5741857996       17.8297716624       10.3272849625
  C        25.2588310244       17.8876687994       11.0280838683
  C        24.9899021129       18.9095995227       11.9507370904
  C        23.7712043625       18.9434573276       12.6220306754
  C        22.7929584655       17.9563303208       12.3915227619
  C        23.0549073114       16.9598844003       11.4341283110
  C        24.2747245327       16.9231964780       10.7623592577
  C        21.5278464244       17.9448792517       13.1608542271
  C        21.5460965074       17.9390566218       14.5820704775
  C        22.7621680523       17.8280421704       15.3283329741
  C        14.0463101777       17.8327954856       10.2833687080
  C        15.3536518501       17.9002080852       10.9988151297
  C        15.6119544827       18.9160118659       11.9320344287
  C        16.8232008990       18.9459654297       12.6193310294
  C        17.8075234634       17.9628601335       12.3945392273
  C        17.5551867478       16.9726284204       11.4268968673
  C        16.3434509721       16.9383682356       10.7407238636
  C        19.0736410868       17.9507343861       13.1654781796
  C        19.0647939533       17.9479819527       14.5871794331
  C        17.8533214754       17.8466631322       15.3408984393
  C        46.8017278697       17.2160743917       10.1560771580
  C        45.5068457433       17.1458429447       10.8945893463
  C        45.2988096889       16.1606018360       11.8723812246
  C        44.1137813549       16.1334356846       12.6031492098
  C        43.1056086384       17.0915321477       12.3793158761
  C        43.3099867001       18.0552802398       11.3731927987
  C        44.4959278322       18.0861818239       10.6430595865
  C        41.8523642865       17.0966778804       13.1696835332
  C        41.8617639204       17.0975630639       14.5920771480
  C        43.0727081411       17.1956594707       15.3474098244
  C        20.3077900554       17.9595442004       15.3009566572
  C        20.2996873275       17.9304238587       12.4883448815
  C        46.7844644496       17.2331583376        5.8854480854
  C        45.4833557793       17.1302262444        5.1635071771
  C        45.2653049486       16.1304678730        4.2031478755
  C        44.0785063877       16.1027851824        3.4743614018
  C        43.0789846513       17.0722105953        3.6875057469
  C        43.2885793589       18.0436607420        4.6843835846
  C        44.4762331683       18.0772309024        5.4088647864
  C        41.8305848904       17.0895353533        2.8921825331
  C        41.8507717963       17.0931890794        1.4705899339
  C        43.0674866032       17.1907855333        0.7244696065
  C        46.1530465466       26.6371079885        0.7262012095
  C        46.1620574119       26.6559320914        3.5358460919
  C        14.0401515351       17.8284118024        5.7057440487
  C        15.3535494755       17.8979482254        5.0043232404
  C        15.6220902365       18.9204388482        4.0823678239
  C        16.8455267306       18.9588999247        3.4185751622
  C        17.8254041503       17.9737736234        3.6521783565
  C        17.5622840900       16.9769205319        4.6088984618
  C        16.3410342953       16.9382296609        5.2766894865
  C        19.0918954940       17.9581518514        2.8848991698
  C        19.0745100120       17.9508568156        1.4637333897
  C        17.8580748054       17.8478108297        0.7171796287
  C        28.8143508772       14.0799168741       10.3613734689
  C        28.2162440580       12.9016989115       11.0506994709
  C        28.9461988931       12.1684075313       11.9976256347
  C        28.3535480390       11.0941259960       12.6570287776
  C        27.0182185847       10.7285183051       12.3917474923
  C        26.3110756109       11.4414259808       11.4068692456
  C        26.9002278296       12.5167397437       10.7476855835
  C        26.3516812363        9.6485338049       13.1552807560
  C        26.3334802332        9.6756857975       14.5762626441
  C        26.8342351238       10.7889607841       15.3228816667
  C        32.1799438771       21.2310555704       10.1440134815
  C        32.7733909559       22.3956631961       10.8678328510
  C        32.0177767811       23.0841132658       11.8298992549
  C        32.5840060374       24.1260622625       12.5583867983
  C        33.9227121256       24.5099499916       12.3473098978
  C        34.6614392960       23.8402839022       11.3532575981
  C        34.0973320052       22.7929313384       10.6262924526
  C        34.5451095376       25.5888860275       13.1503986317
  C        34.5185379185       25.5668184003       14.5726656169
  C        33.9984339494       24.4560352852       15.3095153728
  C        25.7172383976        8.5997221066       15.2929471590
  C        25.7147416359        8.5989810380       12.4801996293
  C        32.0696113791       21.1998707597        5.8760759188
  C        32.6374267814       22.3686495265        5.1397116710
  C        31.9029588281       23.0141546246        4.1329166141
  C        32.4731938720       24.0557471419        3.4027719131
  C        33.7923838156       24.4813363126        3.6575155503
  C        34.5070997911       23.8498757779        4.6941026007
  C        33.9419724150       22.8055112265        5.4207614352
  C        34.4328868033       25.5654902207        2.8747248863
  C        34.4600313776       25.5553755390        1.4518917546
  C        33.9692385143       24.4510265393        0.6863068158
  C        40.6111247294       17.0872237748        0.7502946954
  C        40.6011900183       17.1193977658        3.5606209911
  C        28.7412186051       14.0710109539        5.7810260927
  C        28.1299927542       12.9196802529        5.0551080673
  C        28.8671196513       12.2140537505        4.0917304355
  C        28.2866645565       11.1539539296        3.4010781918
  C        26.9522681337       10.7735892009        3.6473941021
  C        26.2325602118       11.4645087383        4.6401300254
  C        26.8121731450       12.5247682521        5.3340523150
  C        26.3119241260        9.6836765716        2.8739435847
  C        26.3131778026        9.6945667812        1.4519533406
  C        26.8215548819       10.7994218800        0.6989084150
  C        18.1353437904        3.1808431614       10.3171096542
  C        17.4057309559        4.2779808054       11.0156300817
  C        16.3899045794        3.9993942370       11.9429629258
  C        15.7419290044        5.0392156071       12.6064682335
  C        16.0936746124        6.3830071934       12.3669633527
  C        17.0831424033        6.6527658524       11.4033525347
  C        17.7324814877        5.6155733887       10.7382847796
  C        15.4691940687        7.4905845969       13.1300845469
  C        15.4844351572        7.4898757973       14.5518079484
  C        16.1858908787        6.4961866171       15.3049723252
  C        42.9457241172       31.8595127979       10.0727894240
  C        43.6460590616       30.7718088109       10.8167788754
  C        44.5914329946       31.0931358871       11.8029933486
  C        45.1971164410       30.0875960899       12.5506810683
  C        44.8708316624       28.7345275591       12.3356761673
  C        43.9450846228       28.4201787092       11.3223985795
  C        43.3362942293       29.4253273322       10.5743451830
  C        45.4884686656       27.6552630445       13.1388612528
  C        45.4925107696       27.6807980977       14.5605555463
  C        44.8052816277       28.6887530936       15.3071737036
  C        14.8555590864        8.5624250529       15.2641793146
  C        14.8739846155        8.5623922756       12.4514966849
  C        42.9463164425       31.9615535878        5.8089984840
  C        43.6914801793       30.8853515172        5.0954887183
  C        44.6560691384       31.1912145179        4.1231745340
  C        45.2775302460       30.1716031766        3.4054249223
  C        44.9536463471       28.8213066148        3.6430206769
  C        44.0200800952       28.5236729319        4.6537226058
  C        43.3918870462       29.5404752980        5.3659196697
  C        45.5627302413       27.7239066643        2.8577971990
  C        45.5329422443       27.7171776241        1.4365017181
  C        44.8265264880       28.7073522615        0.6835683489
  C        35.0774372327       26.6443698872        0.7502377125
  C        35.0459003764       26.6222270519        3.5608063347
  C        18.1485618155        3.2468564115        5.7066318383
  C        17.4298658113        4.3436407193        4.9973138701
  C        16.4143910084        4.0522640889        4.0740702653
  C        15.7659237818        5.0828076294        3.3986918559
  C        16.1207210516        6.4280581787        3.6210924785
  C        17.1123877460        6.7115664660        4.5780121086
  C        17.7602075670        5.6827318052        5.2577731498
  C        15.4900540900        7.5236753083        2.8486466651
  C        15.4956997217        7.5069363847        1.4275060723
  C        16.1922332143        6.5050920690        0.6807883717
  H        10.6724134655       12.4661437589        3.9041625577
  H        11.6945059756       10.5512516422        2.6623093299
  H        15.3911940154       11.1678187863        4.7727310195
  H        14.3508451832       13.0705797066        6.0180253011
  H        13.3760883111       11.6309738056        1.2012393219
  H        50.3223852214       22.7481538128        3.9865871137
  H        49.3191953864       24.6225291438        2.6804908718
  H        45.6420030164       24.1613676661        4.8639623838
  H        46.6629722113       22.2905190789        6.1723159066
  H        47.6295821689       23.5757792560        1.2460766077
  H        14.8719294529        8.5880330312        4.6085365790
  H        50.2866994173       22.7021322518       12.0607864269
  H        49.2688163833       24.5750417586       13.3608021128
  H        45.6107564998       24.1099709988       11.1452884311
  H        46.6528052413       22.2546564770        9.8310130291
  H        47.6076251096       23.5517960749       14.7967668331
  H        40.6284744315       17.0784683140       11.4067733306
  H        48.6870912874       14.0951716347        7.8000555554
  H        10.6809869484       12.4668814744       12.0935340521
  H        11.6889523344       10.5247974709       13.2972275039
  H        15.3927094602       11.1578828312       11.2051501226
  H        14.3645454217       13.0864233700        9.9898848468
  H        13.3754982322       11.6218167361       14.7530678974
  H        47.9300881238       14.2187480212        9.7107884768
  H        47.7799381280       14.3741247184        6.4954553655
  H        49.0823609244       18.5518923839       10.8670718917
  H        10.4158703301       14.1343242881        7.9988155283
  H        24.4772040436        3.0248628026        3.9108264216
  H        25.6160309500        4.8808746291        2.6787575607
  H        23.2422409457        7.7524990460        4.8276074422
  H        22.1224655249        5.8867870963        6.0621615062
  H        23.8178364665        5.7845779789        1.2441127839
  H        36.3587253168       32.1936895586        3.9843392635
  H        35.2087114585       30.3781004128        2.7176346456
  H        37.4654871326       27.4383799278        4.9006461690
  H        38.5953234351       29.2671745844        6.1776585040
  H        36.9738272506       29.4590812396        1.2969460077
  H        25.7218656939        8.6086297684        4.6373701332
  H        36.4485846408       32.2415896535       12.1099710322
  H        35.3326636896       30.4295809894       13.4067324509
  H        37.5377097701       27.4861326255       11.1744929653
  H        38.6273697798       29.3099077119        9.8638233469
  H        37.0114982009       29.4759423152       14.8502505512
  H        46.1092962762       26.5877472460       11.3855117406
  H        44.6682131333       35.1161402543        7.8140321891
  H        24.4483792646        3.0312948969       12.0704379722
  H        25.5941204101        4.8663373902       13.3157557740
  H        23.1920660791        7.7646976758       11.2362769007
  H        22.0581258700        5.9177712236        9.9903281031
  H        23.8114164794        5.7831286710       14.7952400401
  H        44.9534590262       34.3899233587        9.6948341403
  H        44.9015577903       34.2066986900        6.4906906093
  H        40.6657602242       33.2088123003       10.8530879208
  H        23.1504311487        1.9577944844        8.0041560481
  H        25.7631499293       19.6624226533        3.9557381109
  H        23.6036986145       19.7197041088        2.7078487208
  H        22.3064236977       16.1953100818        4.8034669629
  H        24.4740395514       16.1494997263        6.0487163557
  H        23.7060040287       17.7087803785        1.2377319483
  H        35.1433863533       15.4509808352        3.9790110913
  H        37.2742782050       15.3916099728        2.6833901116
  H        38.6856528559       18.8144844800        4.8730002214
  H        36.5529817839       18.8491195507        6.1783046312
  H        37.2183647250       17.3564246687        1.2393865055
  H        20.3213774581       17.9600187305        4.6460826352
  H        35.1760060130       15.4040813069       12.0484555624
  H        37.3095784003       15.3394279174       13.3383050878
  H        38.6998446571       18.8009648456       11.1975096861
  H        36.5579495487       18.8521907270        9.9082789501
  H        37.2271553843       17.3380474717       14.7895839917
  H        35.1569452068       26.6766691006       11.4062001892
  H        28.4965544226       21.0692670323        7.8782887512
  H        25.7482249581       19.6694723667       12.1237870075
  H        23.5618735107       19.7381807460       13.3347812056
  H        22.3063685747       16.1916015282       11.2516770409
  H        24.4947467984       16.1419053598       10.0388855300
  H        23.6973971745       17.7096552660       14.7888987903
  H        29.0280798735       21.7089629962        9.7262246571
  H        29.2148958584       21.6868977317        6.5641028288
  H        32.0815680430       18.5433011732       10.9214111020
  H        27.3704562414       19.0170610632        8.0840732833
  H        14.8525744576       19.6755272182       12.1037343581
  H        17.0216655581       19.7376483691       13.3386117627
  H        18.3068721498       16.2070933116       11.2457265319
  H        16.1342029724       16.1610696950       10.0096862399
  H        16.9137211554       17.7343334097       14.8079123557
  H        46.0833758144       15.4297715682       12.0538965493
  H        43.9549994821       15.3621626160       13.3536719453
  H        42.5403549222       18.8033797003       11.1946109532
  H        44.6690522051       18.8453853949        9.8838528719
  H        44.0129968782       17.3074684717       14.8151704246
  H        20.2984630449       17.9559120105       11.4001126969
  H        46.0412352832       15.3882147699        4.0300359834
  H        43.9129591859       15.3253131466        2.7316922212
  H        42.5231488901       18.7976734999        4.8558347675
  H        44.6574221420       18.8457766873        6.1562951880
  H        44.0039905570       17.2976991505        1.2642477557
  H        46.1988849032       26.6824821019        4.6232915256
  H        52.7412174506       21.0626337760        8.1946449337
  H        14.8628294225       19.6788017794        3.9048226084
  H        17.0561697199       19.7553142548        2.7080757853
  H        18.3116293435       16.2100000843        4.7936778639
  H        16.1209185103       16.1581221278        6.0013782829
  H        16.9220468180       17.7364184924        1.2562792226
  H        52.3223759803       21.6735984406        6.2946912269
  H        52.0133647239       21.7024326772        9.4954253828
  H        49.0677186193       18.6080308992        5.2041279662
  H        13.2472649994       19.0163435964        7.9757291033
  H        29.9736659826       12.4587246772       12.2053084458
  H        28.9200280149       10.5257350548       13.3915063256
  H        25.2792759762       11.1689996477       11.1947552807
  H        26.3500389201       13.0897359426       10.0054941630
  H        27.2008351524       11.6576009309       14.7839271579
  H        30.9884718509       22.7787293008       12.0010367620
  H        31.9912828154       24.6578120662       13.2995116927
  H        35.6975280143       24.1258638790       11.1830511755
  H        34.6743016695       22.2530850813        9.8788865929
  H        33.6476247383       23.5853024230       14.7629326799
  H        25.7470304711        8.5798868560       11.3922617579
  H        30.8903662664       22.6757664082        3.9245122286
  H        31.8952900458       24.5552179392        2.6282159044
  H        35.5281269947       24.1650178391        4.8990812262
  H        34.5028163600       22.2973255951        6.2015356802
  H        33.5962042910       23.5760860628        1.2111921570
  H        40.5974965290       17.0910124466        4.6486093077
  H        32.5004515535       14.1585432837        8.1783372775
  H        29.8966763990       12.5087634920        3.9034611450
  H        28.8653000685       10.6028058356        2.6630118707
  H        25.2002073314       11.1827386179        4.8370374315
  H        26.2532096177       13.0746536104        6.0874816446
  H        27.1769780720       11.6766140369        1.2317568502
  H        33.3052002203       14.2649684949        6.3845488449
  H        33.4133836651       14.3944434719        9.5138664161
  H        32.0336328161       18.4728044404        5.0686168808
  H        30.1994512857       14.1547430490        8.0756278238
  H        16.1180038795        2.9628276565       12.1292475317
  H        14.9524326374        4.8196346126       13.3220153241
  H        17.3655274729        7.6856897578       11.2104222420
  H        18.5145958105        5.8184239297       10.0105718239
  H        16.7523497376        5.7387823525       14.7714617175
  H        44.8276076741       32.1402342532       11.9772375101
  H        45.9368831727       30.3413777034       13.3067148140
  H        43.6824706330       27.3781020193       11.1522122147
  H        42.5997919631       29.1899883634        9.8095669709
  H        44.2298302777       29.4364502233       14.7688756104
  H        14.8503190632        8.5456672193       11.3632736214
  H        44.8996706527       32.2338871487        3.9317444017
  H        46.0244502715       30.4127956283        2.6521882635
  H        43.7629605544       27.4839692965        4.8452156595
  H        42.6452884444       29.3177252246        6.1242837995
  H        44.2679158526       29.4701445499        1.2181841614
  H        34.9993482290       26.6347197477        4.6481455872
  H        36.6053347540       35.1339891518        8.1806685309
  H        16.1432283535        3.0126660115        3.9046021010
  H        14.9733932518        4.8558758404        2.6888657728
  H        17.3960576385        7.7470411859        4.7546021952
  H        18.5433095827        5.8932836419        5.9822639170
  H        16.7636312502        5.7548126064        1.2192091665
  H        36.2790933082       34.4819637338        6.2734635068
  H        36.3813185717       34.2088217664        9.4994886133
  H        40.5788944925       33.2018868767        5.1542313629
  H        17.4710901891        1.9473000613        7.9740827785
  H        29.0990151743       19.3574824775       12.4964073477
  H        28.7549066174       19.0316653905        3.7000605408
  H        31.3878123443       15.6454342496        3.4516159954
  H        31.9921030974       16.0329244145       12.5295937190
  H        18.8540407874        0.8690765222       12.3352342365
  H        40.5281570729       35.2289618435        3.9521176324
  H        42.3235052143       34.4184078008        3.5906782721
  H        22.0875968038        0.6922933104       12.3513124987
  H        11.5968453081       18.7125551877       12.3826281925
  H        52.2648789575       18.4313706408        3.6775645877
  H        49.2549760185       16.4766378899        3.5843282631
  H        10.1502371829       15.7983028287       12.2926953715
  H        50.8500396497       17.6926702481        3.9539897305
  H        10.0459823118       17.3947429519       12.0519787096
  H        20.2155459499        0.0022875327       12.0418280220
  H        39.1836864114       36.1243373019        3.6863551699
 Ni        30.3520636399       17.5755380637        2.4986152933
 Ni        30.8193751101       16.5742918936        0.0002040232
 Ni        29.8032947743       18.5230771323       -0.0805399974
 Ni        30.2696671299       17.5214571810       13.4913264113
  O        10.6498857668       14.3651481104        5.4858398142
  O        12.6131002058       14.6574397028        6.5838811791
  O        49.1476431938       16.8459280111        7.9897679974
  O        50.3501211808       20.9361403882        5.6482024306
  O        48.3484984285       20.5932363505        6.6659698682
  O        11.0510207066       17.0539470849        6.5006846364
  O        50.3208158686       20.8816947743       10.4068915310
  O        48.3466517367       20.5866815598        9.3270786779
  O        49.5433324893       18.2483854240       10.0683363335
  O        12.3588338326       18.6246262923        7.9996952710
  O        48.6931261421       14.1486626468        6.7512828382
  O         8.2098293025       14.2104716703        9.3225575548
  O        10.7352458268       14.5067801674       10.6643688298
  O        12.5717127261       14.5827358349        9.3285630242