     560
 i =      114, E =     -4677.6457546692
  C        11.8579375786       14.0539806922        5.7414379186
  C        12.4555311124       12.8904089744        5.0231418355
  C        11.7039331787       12.1719948662        4.0811272805
  C        12.2800868187       11.1095893178        3.3887595532
  C        13.6204033353       10.7392353295        3.6168676063
  C        14.3534800287       11.4422686881        4.5907716811
  C        13.7807205489       12.5073745983        5.2822681925
  C        14.2599415033        9.6484976650        2.8435202297
  C        14.2555253044        9.6563337724        1.4217810165
  C        13.7422968493       10.7583939448        0.6678103021
  C        49.1260594000       21.2334701345        5.8798613485
  C        48.5489721437       22.4012605307        5.1523421762
  C        49.2999086929       23.0703265997        4.1732901524
  C        48.7329949015       24.1094377292        3.4400169872
  C        47.4015838979       24.5090133340        3.6668266555
  C        46.6693559386       23.8579650936        4.6779226212
  C        47.2318049933       22.8129611447        5.4072266697
  C        46.7716307317       25.5869937087        2.8696347870
  C        46.7608782659       25.5576510231        1.4478777174
  C        47.2610929020       24.4425652030        0.7045566867
  C        14.8595045770        8.5699756702        0.7085467348
  C        14.8905864457        8.5964503904        3.5201513093
  C        49.1124959517       21.2030501160       10.1452264921
  C        48.5268383530       22.3642452299       10.8729996938
  C        49.2668856783       23.0266279625       11.8641092562
  C        48.6904894702       24.0610994527       12.5956871653
  C        47.3593604994       24.4561582928       12.3588980007
  C        46.6377755057       23.8091555290       11.3376097926
  C        47.2114007453       22.7732038259       10.6058619445
  C        46.7210974680       25.5314476943       13.1497244539
  C        46.7331454326       25.5282871910       14.5714205345
  C        47.2488100504       24.4291621122       15.3277908217
  C        40.6095314288       17.1000987048       15.3051101239
  C        40.6253961970       17.2724361670       12.4752773307
  C        11.8822414727       14.0867055965       10.2851947539
  C        12.4714574305       12.9101318164       10.9893488858
  C        11.7137907750       12.1773274320       11.9155433301
  C        12.2799954458       11.0946538712       12.5840782512
  C        13.6185914083       10.7203928716       12.3521424222
  C        14.3566484173       11.4353756411       11.3909926811
  C        13.7915212399       12.5167234461       10.7182489858
  C        14.2521148859        9.6235972600       13.1226381053
  C        14.2513923848        9.6437428720       14.5445085756
  C        13.7415632921       10.7527345049       15.2915458784
  C        22.5058629847        3.2427840116        5.7488495871
  C        23.2081333386        4.3473960666        5.0372370820
  C        24.2083493054        4.0671557506        4.0948758742
  C        24.8278861990        5.1061792654        3.4057017277
  C        24.4610150420        6.4462612437        3.6387396133
  C        23.4854833152        6.7182939716        4.6148976513
  C        22.8623563348        5.6812110289        5.3033160897
  C        25.0672730600        7.5525104741        2.8649158767
  C        25.0604182859        7.5413827259        1.4437533178
  C        24.3703717722        6.5382404076        0.6922680461
  C        38.3012928304       31.9266412721        5.8465726423
  C        37.5669221952       30.8389794629        5.1338173062
  C        36.6017559631       31.1493079983        4.1629372840
  C        35.9735606980       30.1349849656        3.4446459117
  C        36.2942121694       28.7822093407        3.6732234436
  C        37.2322486844       28.4791222660        4.6787016600
  C        37.8643106401       29.4925673204        5.3965077255
  C        35.6761320388       27.6960362513        2.8758406186
  C        35.6992103861       27.7124259099        1.4533685382
  C        36.4062747740       28.7124040399        0.7142677938
  C        25.6912310389        8.6107578158        0.7300156289
  C        25.6486505167        8.6320261830        3.5409505837
  C        38.3251372722       31.9607610986       10.1550479327
  C        37.5942552091       30.8884393159       10.8925565629
  C        36.6557922392       31.2006333635       11.8884607028
  C        36.0338449576       30.1853648801       12.6131065431
  C        36.3358583375       28.8306836431       12.3677813376
  C        37.2526307423       28.5282370538       11.3419859509
  C        37.8760459361       29.5403064460       10.6176606554
  C        35.7171898823       27.7353376069       13.1519115551
  C        35.7195562961       27.7327513087       14.5746809650
  C        36.4150133185       28.7227945429       15.3374357706
  C        46.1353027417       26.6211209497       15.2814054928
  C        46.0871469683       26.5796602616       12.4735188881
  C        22.4648130350        3.2543102942       10.2528728581
  C        23.1702397156        4.3610792702       10.9666434236
  C        24.1818884469        4.0708702755       11.8957465963
  C        24.8195768476        5.0987166397       12.5857651936
  C        24.4645206680        6.4448056212       12.3689090811
  C        23.4771651552        6.7285747252       11.4069284155
  C        22.8352763570        5.7009640534       10.7167929284
  C        25.0969529394        7.5396612296       13.1454538192
  C        25.0761469443        7.5342527984       14.5674228469
  C        24.3750995291        6.5367237100       15.3158463787
  C        26.5567972711       17.8239369851        5.7907818235
  C        25.2587024936       17.8864978412        5.0631867566
  C        25.0064413106       18.9058337620        4.1315104380
  C        23.7995819059       18.9396537023        3.4377468369
  C        22.8127572060       17.9574222088        3.6544556377
  C        23.0605002940       16.9608735535        4.6171931089
  C        24.2683754146       16.9220997402        5.3100350949
  C        21.5475658022       17.9568492937        2.8819792868
  C        21.5566239643       17.9616913163        1.4600124172
  C        22.7671354127       17.8616984505        0.7039933016
  C        34.4254574376       17.2065248663        5.9095784366
  C        35.7175636759       17.1320756396        5.1895126008
  C        35.8832648755       16.2277951582        4.1248742859
  C        37.0611581136       16.2174474028        3.3884398653
  C        38.1239564301       17.0973634940        3.6992986169
  C        37.9630085324       17.9640029900        4.8050590090
  C        36.7770413489       17.9920071734        5.5286093891
  C        39.3641183942       17.1268382326        2.9145093881
  C        39.3553606865       17.1193362087        1.4619622216
  C        38.1707107324       17.2740843152        0.7205023083
  C        20.3127084503       17.9800879523        0.7479281322
  C        20.3218392208       17.9429861178        3.5603924928
  C        34.4423682370       17.2161126613       10.1614743529
  C        35.7455624649       17.1498434250       10.8576042509
  C        35.9599603976       16.2079535668       11.8824641420
  C        37.1350593124       16.2248165047       12.6211340034
  C        38.1586112114       17.1603065311       12.3419332851
  C        37.9601269683       18.0561210859       11.2653822008
  C        36.7688592584       18.0656700200       10.5502064792
  C        39.3925633439       17.2054097135       13.1328526086
  C        39.3702312043       17.1585061051       14.5845032245
  C        38.1780677962       17.2913501424       15.3174859352
  C        35.0825916122       26.6574368568       15.2795670788
  C        35.1276573552       26.6632747223       12.4699221909
  C        26.5571128811       17.8302573917       10.3205013759
  C        25.2438159891       17.8903697008       11.0175399383
  C        24.9679285458       18.9283334142       11.9209939279
  C        23.7519372269       18.9625517562       12.5963705857
  C        22.7833027955       17.9612186675       12.3885324491
  C        23.0506862395       16.9499344161       11.4479624815
  C        24.2681340218       16.9115713536       10.7722493264
  C        21.5207594862       17.9535460650       13.1619128392
  C        21.5424349981       17.9601786883       14.5828580725
  C        22.7604518147       17.8623682934       15.3275501121
  C        14.0439183326       17.8323732528       10.2833573241
  C        15.3505181918       17.8991602454       11.0015059046
  C        15.6085884508       18.9182903957       11.9308072517
  C        16.8187156574       18.9492010150       12.6199267189
  C        17.8010529640       17.9633019866       12.4003618873
  C        17.5486287810       16.9685504589       11.4376213563
  C        16.3380032253       16.9337169782       10.7495287003
  C        19.0673988962       17.9553052478       13.1703280638
  C        19.0611243233       17.9602043369       14.5918900691
  C        17.8505946936       17.8598977947       15.3472330584
  C        46.7999085422       17.2168393263       10.1544877250
  C        45.5042984232       17.1556652774       10.8819629468
  C        45.3057517970       16.2261631263       11.9168277293
  C        44.1237462721       16.2304578937       12.6488657183
  C        43.0935049588       17.1552894360       12.3633309472
  C        43.2865364576       18.0509874131       11.2880512369
  C        44.4749808033       18.0591877830       10.5671452788
  C        41.8496982765       17.1965380991       13.1445381024
  C        41.8567768922       17.1451893464       14.5959507222
  C        43.0439200508       17.2566605618       15.3396650768
  C        20.3051830016       17.9781009546       15.3037199252
  C        20.2920781892       17.9308963965       12.4912873257
  C        46.7803530576       17.2279763775        5.8893483537
  C        45.4776897908       17.1143140263        5.1827013610
  C        45.2877113267       16.1721232707        4.1571301787
  C        44.1040555519       16.1548677025        3.4273253917
  C        43.0606064653       17.0647245844        3.7120768850
  C        43.2391717482       17.9623322777        4.7881279099
  C        44.4309289583       17.9971119185        5.5012487265
  C        41.8223096770       17.1041756208        2.9229198640
  C        41.8432758894       17.0972731005        1.4716869616
  C        43.0374043284       17.2318696649        0.7425925928
  C        46.1530993083       26.6376755763        0.7261496620
  C        46.1616404768       26.6559874693        3.5357953472
  C        14.0394988355       17.8289259902        5.7067581467
  C        15.3543528494       17.9006409521        5.0061619135
  C        15.6246341004       18.9286574133        4.0911085461
  C        16.8487485357       18.9701415638        3.4285434149
  C        17.8269164509       17.9822568982        3.6566847927
  C        17.5619966468       16.9791876261        4.6061928671
  C        16.3400900776       16.9378353842        5.2729354128
  C        19.0933208827       17.9699580593        2.8890375297
  C        19.0748915773       17.9667561627        1.4679646388
  C        17.8573744966       17.8627561274        0.7233993249
  C        28.8045081878       14.0789635111       10.3576912753
  C        28.2101152628       12.9023004154       11.0456621897
  C        28.9382033506       12.1834002757       12.0056031948
  C        28.3471719619       11.1091430938       12.6660436052
  C        27.0172880225       10.7311220358       12.3899277239
  C        26.3136828128       11.4304279546       11.3923476891
  C        26.9001945542       12.5051415607       10.7310175377
  C        26.3507361324        9.6511012085       13.1523001841
  C        26.3240708330        9.6798741324       14.5729725069
  C        26.8179895613       10.7945862541       15.3221556890
  C        32.1685374447       21.2434393379       10.0985723219
  C        32.7493781068       22.4103963668       10.8223484808
  C        31.9937426326       23.0722605685       11.8037687604
  C        32.5544193039       24.1103753370       12.5425634692
  C        33.8854422738       24.5171982787       12.3232078242
  C        34.6228782986       23.8713808495       11.3115363348
  C        34.0665928129       22.8272770859       10.5747207226
  C        34.5057852667       25.5959105482       13.1288790592
  C        34.4890938399       25.5733673840       14.5516628415
  C        33.9764083133       24.4619728636       15.2923025480
  C        25.7057451387        8.6028191696       15.2860591030
  C        25.7196100193        8.5997259036       12.4742918818
  C        32.0726871770       21.2011485177        5.8413777511
  C        32.6489351055       22.3685105887        5.1136215507
  C        31.9147713070       23.0200391089        4.1095653107
  C        32.4858140321       24.0639344758        3.3850198317
  C        33.8067733913       24.4848058993        3.6393502604
  C        34.5212454794       23.8476488078        4.6728391386
  C        33.9546265752       22.8015329055        5.3964156121
  C        34.4457820574       25.5679125800        2.8545004202
  C        34.4589686855       25.5592086407        1.4314120646
  C        33.9608784965       24.4558127902        0.6693134240
  C        40.6020231586       17.0775611022        0.7512590663
  C        40.5923580371       17.1613836053        3.5831707383
  C        28.6603126722       14.0640599525        5.8209896810
  C        28.0557407981       12.9214052306        5.0803552602
  C        28.8090875847       12.2120267117        4.1319759245
  C        28.2357928092       11.1576826692        3.4270071159
  C        26.8950305988       10.7852498779        3.6478443906
  C        26.1583377289       11.4802522097        4.6252046225
  C        26.7292791141       12.5368270463        5.3312704588
  C        26.2668954187        9.6931557328        2.8686791998
  C        26.2825804774        9.7014026651        1.4474752529
  C        26.7958443897       10.8059973015        0.6979106855
  C        18.1350791070        3.1809104982       10.3171457690
  C        17.4052572433        4.2777943874       11.0154035622
  C        16.3907050627        3.9990414959       11.9441329219
  C        15.7426662610        5.0387769070       12.6076385450
  C        16.0930721855        6.3827464801       12.3669538998
  C        17.0810006794        6.6525694727       11.4017363780
  C        17.7304608423        5.6155069594       10.7366711969
  C        15.4687123494        7.4902995477       13.1300506372
  C        15.4844616960        7.4897729896       14.5517526524
  C        16.1864566436        6.4964920865       15.3049528362
  C        42.9458258178       31.8592655619       10.0728643405
  C        43.6460949141       30.7717628391       10.8164895222
  C        44.5910387162       31.0930684761       11.8032033686
  C        45.1967214152       30.0874975903       12.5507476816
  C        44.8709081242       28.7343146288       12.3353769774
  C        43.9458513221       28.4200340970       11.3213899869
  C        43.3370465550       29.4251725337       10.5733896049
  C        45.4883084678       27.6550923123       13.1386835299
  C        45.4927047235       27.6812124452       14.5603573978
  C        44.8056822852       28.6893260211       15.3069568207
  C        14.8555391237        8.5623048123       15.2640950282
  C        14.8730605811        8.5618720698       12.4514430661
  C        42.9465849957       31.9613991377        5.8089703904
  C        43.6917628806       30.8855708493        5.0957891302
  C        44.6553264222       31.1915903659        4.1224186806
  C        45.2767355317       30.1720451630        3.4046673041
  C        44.9539099719       28.8215683353        3.6430672381
  C        44.0217200822       28.5238657484        4.6551035369
  C        43.3935353607       29.5405540191        5.3673836139
  C        45.5628051336       27.7242886064        2.8577327271
  C        45.5332023906       27.7178731420        1.4364352467
  C        44.8269749907       28.7080744767        0.6833510820
  C        35.0697047618       26.6488877164        0.7257238553
  C        35.0663138994       26.6229459982        3.5363768284
  C        18.1481962891        3.2468430516        5.7066411114
  C        17.4293298766        4.3434612586        4.9975542775
  C        16.4151315415        4.0520282647        4.0728924301
  C        15.7666793007        5.0825591367        3.3975275371
  C        16.1201585710        6.4279947420        3.6211349035
  C        17.1102859763        6.7114725568        4.5797051342
  C        17.7580923313        5.6826884456        5.2594862480
  C        15.4897135804        7.5236234378        2.8486123521
  C        15.4957902918        7.5069320962        1.4274766648
  C        16.1928307579        6.5054353078        0.6807663998
  H        10.6719695478       12.4667145004        3.9039407645
  H        11.6936718954       10.5514829351        2.6620185844
  H        15.3902774993       11.1670619477        4.7729205222
  H        14.3497788290       13.0701637482        6.0183674720
  H        13.3749882993       11.6303850900        1.2011488402
  H        50.3232988525       22.7515551355        3.9901671500
  H        49.3199704195       24.6260386123        2.6837253939
  H        45.6388425844       24.1565652223        4.8589169386
  H        46.6598152878       22.2852823001        6.1669323331
  H        47.6296039190       23.5762996068        1.2464811421
  H        14.8704822470        8.5876453742        4.6084543353
  H        50.2875360384       22.7048814079       12.0576610299
  H        49.2693287662       24.5777947257       13.3580175355
  H        45.6074956361       24.1045085495       11.1503452469
  H        46.6497333962       22.2488628055        9.8363628693
  H        47.6075742397       23.5520674347       14.7968039012
  H        40.6308575170       17.2749246207       11.3867767027
  H        48.6855564760       14.0951517262        7.7993512896
  H        10.6804753034       12.4670147057       12.0929897710
  H        11.6879615282       10.5246687562       13.2969162057
  H        15.3918877434       11.1569059332       11.2048591503
  H        14.3636352271       13.0856858136        9.9892118871
  H        13.3743297236       11.6211123363       14.7527921556
  H        47.9293614066       14.2204854932        9.7108311558
  H        47.7803385718       14.3755681822        6.4930640970
  H        49.0786889891       18.5502596913       10.8656174589
  H        10.4138073776       14.1345248146        7.9986693072
  H        24.4790522446        3.0291831887        3.9146994919
  H        25.6059730509        4.8900933967        2.6768104113
  H        23.1944445237        7.7503892145        4.7988283693
  H        22.0883786430        5.8800552967        6.0405235443
  H        23.8051401516        5.7811199311        1.2279579252
  H        36.3670268893       32.1941079362        3.9735640539
  H        35.2246395087       30.3827115927        2.6955540352
  H        37.4906412221       27.4384076811        4.8634244831
  H        38.6122739208       29.2630711017        6.1519314317
  H        36.9744571912       29.4607961017        1.2590402495
  H        25.6671037519        8.6188667645        4.6291793814
  H        36.4337470104       32.2457040865       12.0923508952
  H        35.3011429121       30.4352045855       13.3773272103
  H        37.4996775509       27.4871379073       11.1446907753
  H        38.6055202335       29.3097203534        9.8449660510
  H        36.9907115652       29.4789572997       14.8115089078
  H        46.1082306054       26.5864278324       11.3854700407
  H        44.6682782845       35.1160646844        7.8140055225
  H        24.4577366684        3.0315501023       12.0590713968
  H        25.6063350496        4.8680500492       13.3008966099
  H        23.1924711369        7.7640533397       11.2317363428
  H        22.0563542239        5.9156744297        9.9888055272
  H        23.8126058782        5.7790736028       14.7781390405
  H        44.9535746832       34.3897793884        9.6945755884
  H        44.9019512466       34.2068925303        6.4904419028
  H        40.6656366526       33.2082619627       10.8526041912
  H        23.1503857760        1.9572084532        8.0032879991
  H        25.7642859569       19.6685313425        3.9680467013
  H        23.6052720080       19.7351877925        2.7216630892
  H        22.3072234485       16.1951153001        4.7905480530
  H        24.4734845338       16.1405278781        6.0378401310
  H        23.7080841436       17.7508250386        1.2350135273
  H        35.0661409532       15.5529044461        3.8801180658
  H        37.1810125611       15.5116330250        2.5699015008
  H        38.7664899724       18.6538333335        5.0542435192
  H        36.6399177195       18.6902806784        6.3510058480
  H        37.2305643931       17.4224093924        1.2433175145
  H        20.3243228776       17.9631329430        4.6487313974
  H        35.1864684626       15.4741292298       12.0964002335
  H        37.2868853778       15.4975009100       13.4152908963
  H        38.7353672420       18.7848011993       11.0377778145
  H        36.5966869657       18.7919450381        9.7591111954
  H        37.2428932463       17.4499438036       14.7884171266
  H        35.1079014705       26.6854781739       11.3819174035
  H        28.4903452942       21.1283154681        7.8769225263
  H        25.7169459128       19.7011975108       12.0767987773
  H        23.5374111386       19.7682458681       13.2951279712
  H        22.3082898571       16.1719097080       11.2826587339
  H        24.4927429327       16.1180973542       10.0634822401
  H        23.6963557778       17.7528572190       14.7874903961
  H        28.9189904290       21.7881043692        9.7192350926
  H        29.1616744213       21.7225191116        6.5017061722
  H        32.3769837094       18.7142033494       10.7290638463
  H        27.3325811992       19.0628115924        8.0604166037
  H        14.8498654440       19.6795730886       12.0975548697
  H        17.0177458180       19.7437657383       13.3358704014
  H        18.2989288367       16.2004409053       11.2617002267
  H        16.1276245611       16.1537873138       10.0215943440
  H        16.9105103690       17.7461516802       14.8153954360
  H        46.0985154089       15.5162816635       12.1414857356
  H        43.9762381727       15.5029965161       13.4436512949
  H        42.5077137196       18.7754578888       11.0594459599
  H        44.6402946000       18.7753681721        9.7656429798
  H        43.9859341275       17.4034377351       14.8198107076
  H        20.2885494447       17.9473976167       11.4029087677
  H        46.0873728840       15.4695155439        3.9336346257
  H        43.9672811750       15.4248709607        2.6327938968
  H        42.4474271801       18.6721217337        5.0183002277
  H        44.5873343053       18.7211296604        6.2972822762
  H        43.9747684661       17.3588568942        1.2757167534
  H        46.1982294951       26.6821024077        4.6232625797
  H        52.7404172276       21.0620872609        8.1943597297
  H        14.8659171689       19.6886034777        3.9179000205
  H        17.0607641917       19.7707406944        2.7231476961
  H        18.3099265065       16.2097019849        4.7860131984
  H        16.1179609439       16.1534900593        5.9924765690
  H        16.9223810457       17.7513798446        1.2642957143
  H        52.3199010129       21.6726697183        6.2955192950
  H        52.0111173003       21.7006705391        9.4949095431
  H        49.0626043125       18.6061591451        5.2058686974
  H        13.2463763107       19.0172150463        7.9757960753
  H        29.9597647702       12.4874377518       12.2239731041
  H        28.9109587884       10.5507590365       13.4101658562
  H        25.2866094946       11.1471241994       11.1719276706
  H        26.3530395186       13.0675185249        9.9785020912
  H        27.1871863273       11.6636362818       14.7857941707
  H        30.9731947042       22.7440765985       11.9868760013
  H        31.9619104036       24.6206005346       13.2988002472
  H        35.6534867218       24.1726825465       11.1355374735
  H        34.6460396290       22.3052073306        9.8166960698
  H        33.6211832891       23.5906806368       14.7494150814
  H        25.7577284344        8.5797847674       11.3865695313
  H        30.9016819357       22.6846542957        3.8992750511
  H        31.9082060258       24.5678985296        2.6132364361
  H        35.5438078735       24.1583166842        4.8769880723
  H        34.5165477771       22.2892603634        6.1737577658
  H        33.5938731172       23.5795045466        1.1959393768
  H        40.5892530602       17.1347859059        4.6712987318
  H        32.5472136576       14.0995886888        8.1669157105
  H        29.8462597190       12.4950878254        3.9679875676
  H        28.8256764173       10.6033862652        2.7002850697
  H        25.1210248655       11.2029016924        4.8010089612
  H        26.1583176704       13.0901202010        6.0731559304
  H        27.1472800687       11.6834910228        1.2328295570
  H        33.2837691795       14.2216418474        6.3346563226
  H        33.4440423998       14.3038815978        9.5345234177
  H        32.1308981252       18.5380897466        5.1496274650
  H        30.1853078405       14.1330762677        8.0546702692
  H        16.1197383567        2.9624112582       12.1313880712
  H        14.9541045152        4.8190902875       13.3241814389
  H        17.3619808789        7.6856398937       11.2075664279
  H        18.5113782554        5.8185110532       10.0077293151
  H        16.7532290976        5.7392666664       14.7715360952
  H        44.8269544827       32.1401382772       11.9778988133
  H        45.9361306235       30.3411903918       13.3071505261
  H        43.6838632510       27.3778862316       11.1506250526
  H        42.6011710458       29.1896327054        9.8080809604
  H        44.2301760397       29.4370049730       14.7687087046
  H        14.8487447737        8.5449157624       11.3632373844
  H        44.8981788124       32.2342900515        3.9302306976
  H        46.0228153585       30.4132699266        2.6506181248
  H        43.7657159734       27.4840485678        4.8475111096
  H        42.6480793587       29.3175275531        6.1267806334
  H        44.2682623922       29.4709091705        1.2177843334
  H        35.0295664477       26.6341560802        4.6241207115
  H        36.6051326758       35.1339496625        8.1806605217
  H        16.1448512561        3.0123798437        3.9023730551
  H        14.9751079359        4.8555448688        2.6866592762
  H        17.3926005817        7.7470866501        4.7576181300
  H        18.5398791923        5.8933583108        5.9853473548
  H        16.7645908628        5.7554015696        1.2191340460
  H        36.2783183117       34.4824055115        6.2731005762
  H        36.3807718279       34.2091695784        9.4997034415
  H        40.5805344272       33.2021203981        5.1538206981
  H        17.4709698062        1.9472174325        7.9740738979
  H        28.7135284389       19.0611335358       12.3391935087
  H        28.6889962197       18.8055343987        3.7867273006
  H        30.6149452566       15.4510285046        3.8003410234
  H        32.5757925677       16.1820149500       12.2101026625
  H        18.8531897453        0.8690372992       12.3349270177
  H        40.5281715860       35.2289806666        3.9521163652
  H        42.3238625094       34.4188849520        3.5905097820
  H        22.0876500605        0.6916257780       12.3521576910
  H        11.5973586483       18.7123489217       12.3812351135
  H        52.2645772205       18.4303128920        3.6785861381
  H        49.2532323342       16.4815661155        3.5876364074
  H        10.1509951091       15.7984759743       12.2916428941
  H        50.8491516164       17.6921456301        3.9547630545
  H        10.0454990992       17.3947664448       12.0518571796
  H        20.2144375268        0.0019981752       12.0420713371
  H        39.1835412465       36.1244490899        3.6868176415
 Ni        30.6929423119       17.7185254078        3.0002872803
 Ni        30.8601990842       16.9350293717       -1.5825681275
 Ni        30.6509122361       17.2496645094        0.8233442978
 Ni        30.6501076460       17.6415838050       12.0829386659
  O        10.6495979494       14.3650750332        5.4855186511
  O        12.6130378180       14.6572854868        6.5837769973
  O        49.1475342871       16.8459668835        7.9897308093
  O        50.3499220258       20.9372091572        5.6483650807
  O        48.3482931265       20.5937572910        6.6659260555
  O        11.0501000660       17.0544241719        6.5003130155
  O        50.3206937220       20.8820546288       10.4068516450
  O        48.3465572556       20.5870232820        9.3269403027
  O        49.5432625640       18.2485899652       10.0682480824
  O        12.3585562343       18.6243818957        7.9996910331
  O        48.6928732010       14.1485411419        6.7509687337
  O         8.2094217493       14.2103983041        9.3228713939
  O        10.7352293254       14.5065944115       10.6646147600
  O        12.5718043023       14.5826730718        9.3285427660