     564
 i =      130, E =     -4680.0503626084
  C        11.8584927481       14.0533466344        5.7415604610
  C        12.4558191233       12.8902975104        5.0233492017
  C        11.7042495022       12.1717711386        4.0812801932
  C        12.2805427406       11.1095246085        3.3889299305
  C        13.6209541879       10.7392785522        3.6169693770
  C        14.3539521366       11.4424115177        4.5909048743
  C        13.7811395619       12.5073954554        5.2824535052
  C        14.2604115926        9.6485919962        2.8435547912
  C        14.2555768262        9.6564612037        1.4218464118
  C        13.7424365483       10.7585659164        0.6678940799
  C        49.1265288851       21.2334552324        5.8797367537
  C        48.5496949309       22.4012953124        5.1527592044
  C        49.2996754180       23.0685438190        4.1716536199
  C        48.7326965998       24.1075863101        3.4383937896
  C        47.4021603454       24.5092446205        3.6670481714
  C        46.6712669046       23.8604678440        4.6806778031
  C        47.2337527053       22.8156320919        5.4100913472
  C        46.7719184045       25.5868721307        2.8697199990
  C        46.7609863485       25.5572258392        1.4479661870
  C        47.2608954670       24.4421131642        0.7044900416
  C        14.8594094526        8.5700641367        0.7085709187
  C        14.8912590371        8.5966560816        3.5201815890
  C        49.1128567933       21.2035241759       10.1452622534
  C        48.5274552582       22.3648058801       10.8723385211
  C        49.2665709462       23.0253296823       11.8654802160
  C        48.6902044684       24.0598216531       12.5969671993
  C        47.3598473445       24.4567283783       12.3585863783
  C        46.6395809401       23.8120477249       11.3348020621
  C        47.2131704330       22.7762103499       10.6029635292
  C        46.7213871868       25.5316402951       13.1496343248
  C        46.7331748885       25.5279862039       14.5713318186
  C        47.2486130916       24.4287878870       15.3277308786
  C        40.6178293622       17.0910108270       15.3185285675
  C        40.6372121440       17.1419108623       12.5081080083
  C        11.8827513798       14.0863058717       10.2854876317
  C        12.4716819187       12.9102153209       10.9894634319
  C        11.7141952688       12.1775923945       11.9160713345
  C        12.2804996862       11.0949843900       12.5844619481
  C        13.6190545138       10.7205209046       12.3522234805
  C        14.3568686550       11.4353323817       11.3907126756
  C        13.7917269621       12.5166461785       10.7180299131
  C        14.2525445586        9.6237896807       13.1227173605
  C        14.2514009403        9.6439016976       14.5445624375
  C        13.7417236951       10.7529402099       15.2916372124
  C        22.5059761504        3.2428563600        5.7487030997
  C        23.2083265012        4.3469380199        5.0371651931
  C        24.2066730431        4.0661287782        4.0929093765
  C        24.8259562850        5.1048057882        3.4031070145
  C        24.4609961857        6.4452290440        3.6374393344
  C        23.4876978756        6.7177112430        4.6157832572
  C        22.8647480345        5.6810392766        5.3048564241
  C        25.0667113389        7.5513190753        2.8631759148
  C        25.0584548326        7.5406944804        1.4420597443
  C        24.3680695296        6.5376911166        0.6906410473
  C        38.3007944988       31.9264199469        5.8481340523
  C        37.5673581709       30.8365790821        5.1392543314
  C        36.6051467862       31.1412929846        4.1637575552
  C        35.9821241620       30.1224646701        3.4473108911
  C        36.3050255215       28.7714002422        3.6830150949
  C        37.2377903452       28.4742405181        4.6949999111
  C        37.8649784349       29.4918704671        5.4104951597
  C        35.6978692543       27.6801329777        2.8850191906
  C        35.7324055561       27.6930807762        1.4628984497
  C        36.4379279383       28.6955308128        0.7254511326
  C        25.6883347478        8.6106260435        0.7282530878
  C        25.6486780867        8.6306084137        3.5390801798
  C        38.3271180824       31.9601220421       10.1569411991
  C        37.6032548078       30.8858205102       10.8977273528
  C        36.6725858890       31.1931098617       11.9024093499
  C        36.0594063525       30.1742399943       12.6297029996
  C        36.3614879390       28.8207261463       12.3773313119
  C        37.2698365426       28.5235320782       11.3424453846
  C        37.8850941569       29.5389208765       10.6162546139
  C        35.7514192017       27.7205773949       13.1611815971
  C        35.7600688310       27.7135522755       14.5839131170
  C        36.4506025295       28.7057357353       15.3485009679
  C        46.1351844073       26.6206348276       15.2814531445
  C        46.0873907931       26.5799668543       12.4735695975
  C        22.4647965963        3.2542200975       10.2524760251
  C        23.1698169440        4.3608661852       10.9655292515
  C        24.1806046113        4.0710401269       11.8956926562
  C        24.8175366855        5.0993038968       12.5855348394
  C        24.4626147940        6.4452215179       12.3673173977
  C        23.4765548118        6.7285218485       11.4038850618
  C        22.8353997122        5.7005739221       10.7138625152
  C        25.0936767527        7.5403488505       13.1439697738
  C        25.0726420526        7.5345265837       14.5658093749
  C        24.3720015134        6.5366999026       15.3142244256
  C        26.5498478178       17.8225811723        5.7942915945
  C        25.2515253545       17.8809153112        5.0659227417
  C        24.9979892345       18.8974749854        4.1318571040
  C        23.7921372292       18.9261295422        3.4360817327
  C        22.8078289953       17.9421641089        3.6551194585
  C        23.0565145447       16.9485884859        4.6204238239
  C        24.2639635773       16.9143771971        5.3142088055
  C        21.5430039073       17.9376109202        2.8823919018
  C        21.5521885334       17.9366520210        1.4606070478
  C        22.7628644177       17.8313677275        0.7057303024
  C        34.4183854852       17.2164034772        5.9138370503
  C        35.7121175962       17.1475904539        5.1754986465
  C        35.9024056735       16.1826405283        4.1738069992
  C        37.0850396383       16.1547446343        3.4396012454
  C        38.1085529037       17.0917194796        3.6835173323
  C        37.9198002198       18.0362707918        4.7111551762
  C        36.7360469217       18.0687077057        5.4446870998
  C        39.3627064189       17.0928105171        2.8948843684
  C        39.3585822431       17.1032827211        1.4721471471
  C        38.1518216177       17.2209457572        0.7126911335
  C        20.3086156954       17.9567750813        0.7481914916
  C        20.3173803995       17.9281350733        3.5604804111
  C        34.4517943222       17.1892829956       10.1767001036
  C        35.7541749302       17.1202871214       10.8990471520
  C        35.9907834266       16.1195671190       11.8544722652
  C        37.1755756158       16.1111696967       12.5854888402
  C        38.1576871818       17.0988033156       12.3767435517
  C        37.9298212073       18.0737555901       11.3873936324
  C        36.7408143574       18.0902878403       10.6625934580
  C        39.4060333315       17.1190254804       13.1727798196
  C        39.3810384285       17.1157951312       14.5941968118
  C        38.1623028655       17.2233086984       15.3356164905
  C        35.1309172641       26.6331022532       15.2878717517
  C        35.1606797535       26.6494926561       12.4782286066
  C        26.5568987106       17.8240726297       10.3237214979
  C        25.2450152000       17.8760589363       11.0261780952
  C        24.9639885192       18.9142400526       11.9272616153
  C        23.7469616239       18.9445742023       12.6012076819
  C        22.7832161074       17.9388710993       12.3933221537
  C        23.0568663861       16.9249901182       11.4578607566
  C        24.2752821493       16.8910286958       10.7836027918
  C        21.5189364447       17.9299010106       13.1637540347
  C        21.5393142756       17.9328830595       14.5844715738
  C        22.7568480565       17.8305148550       15.3292810451
  C        14.0443130801       17.8319653350       10.2837270806
  C        15.3501283590       17.8966342086       11.0011127329
  C        15.6095882908       18.9129145339       11.9332626299
  C        16.8196899637       18.9397477745       12.6223782147
  C        17.8005497086       17.9528880634       12.3997951118
  C        17.5469899465       16.9618473522       11.4335206861
  C        16.3365129548       16.9308018125       10.7455542462
  C        19.0660420122       17.9390233738       13.1703505976
  C        19.0582370776       17.9408212472       14.5917359937
  C        17.8470511185       17.8423621457       15.3463775279
  C        46.8033425447       17.2187297417       10.1594755791
  C        45.5123625972       17.1558795519       10.9054299467
  C        45.3047275649       16.1747644541       11.8875299537
  C        44.1222011830       16.1537432145       12.6227497567
  C        43.1160514465       17.1142774481       12.3994202920
  C        43.3213282494       18.0755934725       11.3910199281
  C        44.5043639998       18.1000492343       10.6561771102
  C        41.8614727181       17.1208968225       13.1875475465
  C        41.8651553436       17.1094079284       14.6100259136
  C        43.0733083082       17.1999290596       15.3705926334
  C        20.3017652954       17.9539087506       15.3042830331
  C        20.2911326438       17.9127098241       12.4918645743
  C        46.7822605399       17.2303550971        5.8884873583
  C        45.4772067507       17.1199769851        5.1739828936
  C        45.2583453411       16.1166805691        4.2173793904
  C        44.0688705478       16.0830998197        3.4929803228
  C        43.0666823922       17.0496018791        3.7070840276
  C        43.2760149977       18.0228274389        4.7023338438
  C        44.4667077622       18.0627302096        5.4219259431
  C        41.8189651410       17.0661050652        2.9096536414
  C        41.8434304863       17.0799688753        1.4882131110
  C        43.0628388375       17.1835624407        0.7473669759
  C        46.1529594284       26.6370809991        0.7262023604
  C        46.1619704015       26.6559991050        3.5358371257
  C        14.0391460870       17.8282158126        5.7064449130
  C        15.3525098085       17.8973743030        5.0058457947
  C        15.6229690032       18.9221561241        4.0872118830
  C        16.8467111792       18.9599125028        3.4242394991
  C        17.8237010199       17.9716812048        3.6558965756
  C        17.5588178029       16.9725128996        4.6094257960
  C        16.3373722883       16.9346382493        5.2764757141
  C        19.0893740546       17.9547893344        2.8883531328
  C        19.0705756716       17.9478560238        1.4675406149
  C        17.8531057698       17.8453836615        0.7225285047
  C        28.8048542566       14.0810340703       10.3583009265
  C        28.2068602932       12.9042539807       11.0468805208
  C        28.9332068254       12.1855960288       12.0077076917
  C        28.3422266464       11.1104198408       12.6667189674
  C        27.0129329055       10.7324311073       12.3888748566
  C        26.3100982084       11.4322520180       11.3914317317
  C        26.8975917721       12.5071865620       10.7309049193
  C        26.3461436546        9.6522986263       13.1506813404
  C        26.3191676719        9.6808819410       14.5713452222
  C        26.8134257522       10.7955642365       15.3203699613
  C        32.1777899123       21.2404380635       10.1090751663
  C        32.7661031223       22.4010276288       10.8387229688
  C        32.0227165769       23.0567291623       11.8326787126
  C        32.5922771014       24.0918653870       12.5691683498
  C        33.9197035604       24.5012934564       12.3336668827
  C        34.6446327895       23.8616385637       11.3096713022
  C        34.0793981356       22.8204928829       10.5759444371
  C        34.5481267600       25.5766575019       13.1368840655
  C        34.5437262084       25.5465325475       14.5592350616
  C        34.0453144505       24.4272692043       15.2978682321
  C        25.7016124743        8.6034005207       15.2843618297
  C        25.7159302173        8.6005596278       12.4727129551
  C        32.0760638824       21.1929180442        5.8454103133
  C        32.6587908046       22.3568276594        5.1140449661
  C        31.9398558621       22.9944705905        4.0909096410
  C        32.5192817672       24.0343552783        3.3667977407
  C        33.8329216234       24.4647366137        3.6418889104
  C        34.5319394520       23.8407549058        4.6935773575
  C        33.9570792028       22.7984644029        5.4159006079
  C        34.4791555704       25.5454713891        2.8602050261
  C        34.5077211557       25.5312241909        1.4375106479
  C        34.0270579460       24.4204511491        0.6747635403
  C        40.6060969158       17.0798412591        0.7638474410
  C        40.5873195089       17.0902932928        3.5738395115
  C        28.6611242922       14.0628018796        5.8182330474
  C        28.0568608834       12.9196992622        5.0769586178
  C        28.8099874234       12.2083723544        4.1301799644
  C        28.2361161932       11.1543072370        3.4252616854
  C        26.8948543791       10.7838391327        3.6454391035
  C        26.1580885061       11.4805599315        4.6213465489
  C        26.7297206188       12.5371603970        5.3268237547
  C        26.2660899121        9.6919653820        2.8665972705
  C        26.2801149583        9.7011631973        1.4454501314
  C        26.7927861499       10.8062837402        0.6961564415
  C        18.1353532994        3.1807898583       10.3172116168
  C        17.4057298880        4.2779384350       11.0157746784
  C        16.3897997165        3.9993422593       11.9429735430
  C        15.7417764605        5.0391629998       12.6064479810
  C        16.0936245145        6.3829267771       12.3670069729
  C        17.0831935720        6.6527068072       11.4035174287
  C        17.7325713072        5.6155105891       10.7384965097
  C        15.4690779172        7.4905094464       13.1300637968
  C        15.4844285478        7.4899177901       14.5517815210
  C        16.1860971411        6.4963704233       15.3049329883
  C        42.9457042123       31.8594285044       10.0727950029
  C        43.6460320377       30.7716830529       10.8167422804
  C        44.5917097588       31.0929746220       11.8026706200
  C        45.1973414296       30.0874118746       12.5503719534
  C        44.8706536590       28.7344001627       12.3356500253
  C        43.9446332868       28.4200756082       11.3226261864
  C        43.3358925586       29.4252446436       10.5745572004
  C        45.4882204134       27.6550984195       13.1388415834
  C        45.4924359892       27.6807347704       14.5605320982
  C        44.8053967814       28.6888308782       15.3071331178
  C        14.8554861307        8.5624406712       15.2641305170
  C        14.8737035688        8.5621958369       12.4514594848
  C        42.9463963645       31.9615629133        5.8090134186
  C        43.6915261010       30.8853796867        5.0954433753
  C        44.6563222840       31.1912698709        4.1233511716
  C        45.2777705464       30.1716651580        3.4055787365
  C        44.9536685219       28.8213975700        3.6429879697
  C        44.0198831469       28.5237336933        4.6534702963
  C        43.3916999062       29.5405218897        5.3656874423
  C        45.5626987042       27.7239780500        2.8577590413
  C        45.5330131437       27.7172623172        1.4364680046
  C        44.8266952203       28.7074989479        0.6835244365
  C        35.1146579327       26.6240960821        0.7337097824
  C        35.0869293447       26.6067381056        3.5439888743
  C        18.1484566695        3.2467405497        5.7065901220
  C        17.4297683113        4.3435608189        4.9971908795
  C        16.4144210344        4.0522222097        4.0738184292
  C        15.7659650215        5.0828099445        3.3984711481
  C        16.1206903857        6.4280515839        3.6210138450
  C        17.1122164152        6.7115147216        4.5780901219
  C        17.7599954061        5.6826392627        5.2578244797
  C        15.4900459248        7.5237036874        2.8485936945
  C        15.4957799545        7.5070367929        1.4274501286
  C        16.1924647616        6.5052831194        0.6807482638
  H        10.6722594485       12.4662151841        3.9039782711
  H        11.6942990147       10.5513009532        2.6621571975
  H        15.3908089943       11.1673927518        4.7729989365
  H        14.3504761679       13.0701727778        6.0183329824
  H        13.3756001121       11.6307925491        1.2011525086
  H        50.3223793187       22.7485158793        3.9868947713
  H        49.3191079594       24.6227934435        2.6807231594
  H        45.6417831430       24.1612595449        4.8638684568
  H        46.6627659371       22.2904764775        6.1722652639
  H        47.6294009493       23.5757210521        1.2461677220
  H        14.8716912210        8.5879042519        4.6084907759
  H        50.2865512989       22.7023703105       12.0605320440
  H        49.2684978607       24.5751572714       13.3606238565
  H        45.6102553027       24.1094599761       11.1455745346
  H        46.6524349994       22.2542625587        9.8311915764
  H        47.6073331411       23.5516259488       14.7968720204
  H        40.6435584814       17.1202929295       11.4199716714
  H        48.6870085687       14.0950727054        7.8000045430
  H        10.6809414476       12.4672047629       12.0938444931
  H        11.6887091713       10.5250163236       13.2974984463
  H        15.3920408886       11.1567940391       11.2043035149
  H        14.3640117000       13.0854295464        9.9889999149
  H        13.3749522245       11.6215854239       14.7530184313
  H        47.9301071044       14.2181174207        9.7109157090
  H        47.7799144657       14.3737271578        6.4952628212
  H        49.0828154153       18.5524107347       10.8671422538
  H        10.4157924521       14.1343136585        7.9987666794
  H        24.4758999077        3.0279734833        3.9116347169
  H        25.6025190896        4.8883465298        2.6727062608
  H        23.1985502106        7.7501000734        4.8010409047
  H        22.0924839525        5.8804391207        6.0437008370
  H        23.8032166945        5.7802858737        1.2263077289
  H        36.3695555600       32.1848727344        3.9687037076
  H        35.2362223020       30.3650203187        2.6935409392
  H        37.4962391653       27.4346694619        4.8858610443
  H        38.6099311004       29.2674170218        6.1703186351
  H        37.0004740131       29.4471627102        1.2716057643
  H        25.6683524412        8.6172131830        4.6272936734
  H        36.4499084018       32.2371087614       12.1111829899
  H        35.3325925676       30.4203124217       13.4007187017
  H        37.5163563208       27.4834674186       11.1392259820
  H        38.6082708943       29.3121349910        9.8366072801
  H        37.0240288964       29.4647336426       14.8241343120
  H        46.1087416242       26.5873808601       11.3855322654
  H        44.6682088170       35.1161794934        7.8141315419
  H        24.4560839005        3.0317961217       12.0600255045
  H        25.6035713762        4.8694063514       13.3016925873
  H        23.1926608045        7.7640156270       11.2275100419
  H        22.0574040742        5.9147264092        9.9847487685
  H        23.8094060246        5.7790728664       14.7765652504
  H        44.9535837252       34.3898826292        9.6947482665
  H        44.9018163332       34.2068068585        6.4907433942
  H        40.6651488153       33.2082955947       10.8527790536
  H        23.1500198798        1.9577955111        8.0031345820
  H        25.7540221664       19.6619079544        3.9677099129
  H        23.5967503711       19.7188246510        2.7171328682
  H        22.3048224785       16.1815084182        4.7948279051
  H        24.4712055661       16.1350017227        6.0438078201
  H        23.7030070838       17.7179041178        1.2377950778
  H        35.1050272753       15.4698583785        3.9762723468
  H        37.2300148184       15.3982669069        2.6715151619
  H        38.7003760341       18.7691909216        4.9044140687
  H        36.5758817145       18.8144682754        6.2199118459
  H        37.2105280831       17.3422720936        1.2412336499
  H        20.3197728548       17.9526130625        4.6487292172
  H        35.2325601174       15.3577191439       12.0200494254
  H        37.3547970447       15.3337804859       13.3250373630
  H        38.6814208472       18.8426722394       11.2207985094
  H        36.5440722865       18.8613080293        9.9212967824
  H        37.2290097563       17.3444468137       14.7928967153
  H        35.1314180997       26.6773257422       11.3905723568
  H        28.5086061558       21.1008323597        7.8914233407
  H        25.7089302138       19.6913903094       12.0814726751
  H        23.5277706670       19.7506715119       13.2980667839
  H        22.3185117886       16.1427502681       11.2943478943
  H        24.5052450109       16.0970515126       10.0770806148
  H        23.6922600189       17.7176434514       14.7890378521
  H        28.9526364122       21.7347406335        9.7178865809
  H        29.1649521494       21.7216374259        6.5140589523
  H        32.2036009618       18.6483307466       10.8802463349
  H        27.3482632975       19.0732610714        8.0809078295
  H        14.8521603774       19.6749327937       12.1024283208
  H        17.0202075376       19.7316926191       13.3407856633
  H        18.2965392814       16.1936100157       11.2550212916
  H        16.1252587266       16.1533645770       10.0152864200
  H        16.9070322209       17.7302907856       14.8140922232
  H        46.0871031470       15.4412896407       12.0679287398
  H        43.9630932431       15.3840932776       13.3748424731
  H        42.5539796619       18.8262360491       11.2132845017
  H        44.6773949918       18.8567295635        9.8944507610
  H        44.0155920363       17.3159123490       14.8427776560
  H        20.2889697682       17.9322163377       11.4035344076
  H        46.0364051544       15.3771155881        4.0423250197
  H        43.9040094336       15.3040028421        2.7518372646
  H        42.5085086180       18.7743904683        4.8753097316
  H        44.6475784988       18.8336692176        6.1670091566
  H        43.9972874422       17.2856802381        1.2915583456
  H        46.1987463658       26.6825758755        4.6232835579
  H        52.7411473516       21.0626738156        8.1946051788
  H        14.8650454921       19.6823277362        3.9117332789
  H        17.0598050526       19.7575868230        2.7158901068
  H        18.3065922352       16.2035005914        4.7918044639
  H        16.1147608103       16.1531314245        5.9988604096
  H        16.9176427501       17.7357001227        1.2629343495
  H        52.3223039376       21.6736577642        6.2947727383
  H        52.0135805275       21.7026801651        9.4954723726
  H        49.0668381357       18.6076414999        5.2042743007
  H        13.2470552670       19.0165312545        7.9759168989
  H        29.9539874520       12.4907664675       12.2276704304
  H        28.9051339775       10.5521562047       13.4115968981
  H        25.2830990366       11.1492412787       11.1702027110
  H        26.3518447526       13.0697871139        9.9775289885
  H        27.1829145776       11.6643919430       14.7837501339
  H        31.0041315769       22.7277012848       12.0253834877
  H        32.0098104146       24.5978113739       13.3359935369
  H        35.6721373666       24.1658946467       11.1210131206
  H        34.6475224213       22.3034705876        9.8060734970
  H        33.7017368279       23.5522789761       14.7533608257
  H        25.7545286478        8.5807242806       11.3850077593
  H        30.9327077031       22.6507448341        3.8656793234
  H        31.9533833420       24.5281741753        2.5799365902
  H        35.5487012961       24.1593003778        4.9139381167
  H        34.5058821813       22.2958041262        6.2087198394
  H        33.6696265330       23.5398682789        1.2010038332
  H        40.5804509715       17.0551196628        4.6616229004
  H        32.5216851801       14.1354028476        8.1792270670
  H        29.8479568518       12.4887748893        3.9671937279
  H        28.8257053491       10.5990384086        2.6990496239
  H        25.1202651908       11.2046268634        4.7964055358
  H        26.1591044818       13.0921770788        6.0677001231
  H        27.1450754961       11.6834624219        1.2311514931
  H        33.2898005895       14.2354051499        6.3498894717
  H        33.4094196525       14.3700152188        9.5383426839
  H        32.1423942347       18.5551557443        5.1618803463
  H        30.1885313769       14.1367900360        8.0660614510
  H        16.1178345413        2.9627740596       12.1291609982
  H        14.9521747404        4.8195885133       13.3218834933
  H        17.3656008458        7.6856340739       11.2106489891
  H        18.5147709854        5.8183153357       10.0108625811
  H        16.7526029164        5.7390071904       14.7714066775
  H        44.8281354133       32.1400470550       11.9767261669
  H        45.9373193740       30.3411154422       13.3062243018
  H        43.6816802278       27.3780392655       11.1527138095
  H        42.5990784122       29.1899781791        9.8100589000
  H        44.2300475176       29.4365849432       14.7688003215
  H        14.8499167878        8.5453364675       11.3632424127
  H        44.9000679753       32.2339423780        3.9321058448
  H        46.0248425313       30.4128543312        2.6524925704
  H        43.7625925059       27.4840340102        4.8447523027
  H        42.6449358918       29.3177847374        6.1238931805
  H        44.2682133089       29.4703972887        1.2181235869
  H        35.0381689797       26.6226746068        4.6311991187
  H        36.6051920687       35.1337346701        8.1807800096
  H        16.1433056404        3.0126281942        3.9042385617
  H        14.9735093958        4.8558962443        2.6885505870
  H        17.3957779221        7.7469905865        4.7548467793
  H        18.5429047830        5.8931243593        5.9825416484
  H        16.7639780710        5.7551015469        1.2191885072
  H        36.2787519134       34.4819449256        6.2732726029
  H        36.3807989293       34.2091198124        9.4999613161
  H        40.5795073087       33.2020856781        5.1539162893
  H        17.4707902668        1.9468615578        7.9739982026
  H        28.6305993283       19.0021502445       12.2107035347
  H        28.5842946077       18.7967868433        3.8685759559
  H        30.7199126462       15.3091564280        3.8329432355
  H        32.4587450627       16.2643526904       12.1934674878
  H        18.8535901096        0.8689366127       12.3352135692
  H        40.5282620833       35.2290006396        3.9521674671
  H        42.3236839553       34.4188659161        3.5903606037
  H        22.0874220404        0.6921834959       12.3515654577
  H        11.5966023441       18.7128947081       12.3825599023
  H        52.2646519788       18.4313410705        3.6774091851
  H        49.2552307403       16.4764002129        3.5840101338
  H        10.1503850128       15.7982811777       12.2924879067
  H        50.8498582958       17.6926501295        3.9540172598
  H        10.0460288710       17.3947506484       12.0519184952
  H        20.2149336784        0.0020473874       12.0419571278
  H        39.1836329217       36.1242999122        3.6864459939
 Ni        30.5254306072       17.5709951972        3.0032939752
 Ni        31.7022331641       17.3797299268       14.9038818897
 Ni        30.5635114470       17.7432281087        0.7523374444
 Ni        30.6119026713       17.7196751638       12.8287858639
  O        10.6497596729       14.3652113006        5.4857973233
  O        12.6130092983       14.6573838609        6.5838339309
  O        49.1475927562       16.8459530173        7.9896574649
  O        50.3500707142       20.9363379597        5.6482900565
  O        48.3484452354       20.5932486785        6.6659523860
  O        11.0507845323       17.0541440517        6.5005977731
  O        50.3206428656       20.8816887544       10.4068644167
  O        48.3465873503       20.5866364046        9.3270234407
  O        49.5433044205       18.2484392389       10.0683044252
  O        12.3586951646       18.6246721450        7.9996470801
  O        48.6931486577       14.1486501256        6.7512809203
  O         8.2098108362       14.2104741278        9.3225712356
  O        10.7352460525       14.5067823440       10.6643635133
  O        12.5716888069       14.5827000637        9.3285613616