     558
 i =      151, E =     -4339.2754045829
  C        11.8584979241       14.0534293628        5.7415271234
  C        12.4558225775       12.8903609896        5.0233187054
  C        11.7042190061       12.1718019559        4.0813005939
  C        12.2804656822       11.1095102133        3.3889775969
  C        13.6208712577       10.7392363695        3.6169997071
  C        14.3538964485       11.4423750943        4.5909117428
  C        13.7811269119       12.5074079212        5.2824276759
  C        14.2603175378        9.6485414216        2.8435794903
  C        14.2554693402        9.6563984161        1.4218692429
  C        13.7423015191       10.7584948255        0.6679255551
  C        49.1265186988       21.2334284091        5.8797037405
  C        48.5496677518       22.4012354605        5.1526775861
  C        49.2996842287       23.0685555487        4.1716505338
  C        48.7327089960       24.1076135536        3.4384067770
  C        47.4021585344       24.5092375459        3.6670404193
  C        46.6712264871       23.8603798877        4.6805876523
  C        47.2337089533       22.8155306531        5.4099849316
  C        46.7719113163       25.5868625089        2.8697090323
  C        46.7610136249       25.5572435941        1.4479542786
  C        47.2609488448       24.4421428084        0.7044775133
  C        14.8593135924        8.5700096969        0.7085887483
  C        14.8911891609        8.5966169264        3.5202036552
  C        49.1128538389       21.2034613259       10.1453055231
  C        48.5274592419       22.3647409440       10.8724051320
  C        49.2666081486       23.0252972050       11.8655006581
  C        48.6902678965       24.0598291078       12.5969510159
  C        47.3599104554       24.4567319903       12.3585839767
  C        46.6396069431       23.8120095424       11.3348562978
  C        47.2131640412       22.7761287491       10.6030542859
  C        46.7214679271       25.5316696109       13.1496130308
  C        46.7332326619       25.5280160093       14.5713124533
  C        47.2486856872       24.4288256103       15.3277169295
  C        40.6181723923       17.0876239032       15.3162000610
  C        40.6374733206       17.1348349283       12.5056606053
  C        11.8827144057       14.0862605473       10.2854039908
  C        12.4716330959       12.9101574440       10.9893928893
  C        11.7141207203       12.1775414853       11.9159818628
  C        12.2804217789       11.0949789747       12.5844516549
  C        13.6189764739       10.7205075286       12.3522354788
  C        14.3568388051       11.4353392790       11.3907769641
  C        13.7916927131       12.5166054038       10.7180174876
  C        14.2524413640        9.6237662842       13.1227432605
  C        14.2512848952        9.6438465519       14.5445873248
  C        13.7415906321       10.7528695672       15.2916696384
  C        22.5058857089        3.2428034581        5.7482109772
  C        23.2082001017        4.3462581355        5.0354469210
  C        24.2070120405        4.0640509614        4.0920709964
  C        24.8272815257        5.1016402136        3.4015625050
  C        24.4630576080        6.4425526134        3.6342725207
  C        23.4887067053        6.7164657146        4.6112022529
  C        22.8647507748        5.6808041105        5.3010388391
  C        25.0719183739        7.5472605194        2.8603954058
  C        25.0676164171        7.5351737692        1.4393120953
  C        24.3760883332        6.5334203554        0.6872811689
  C        38.3009021246       31.9264676987        5.8478610171
  C        37.5674737637       30.8371410490        5.1381882889
  C        36.6042074550       31.1430321868        4.1640811057
  C        35.9803108857       30.1251537832        3.4471626835
  C        36.3032669927       28.7737471488        3.6808943338
  C        37.2375775505       28.4753282871        4.6910976628
  C        37.8655822186       29.4920868930        5.4072101516
  C        35.6930015112       27.6840815463        2.8831075580
  C        35.7220756227       27.6997062544        1.4608958066
  C        36.4281810886       28.7013468873        0.7229332891
  C        25.7024875654        8.6026003951        0.7261599994
  C        25.6535992083        8.6264777162        3.5367922063
  C        38.3262816892       31.9605350474       10.1563475272
  C        37.5994261369       30.8877880585       10.8963126836
  C        36.6680835640       31.1981143346       11.8994977562
  C        36.0511703654       30.1813933804       12.6264759816
  C        36.3500877340       28.8270052252       12.3752630726
  C        37.2591765506       28.5267812620       11.3418931088
  C        37.8781946948       29.5401001692       10.6158986529
  C        35.7358730747       27.7292669801       13.1592090478
  C        35.7437256656       27.7228875902       14.5819435454
  C        36.4379576796       28.7128564620       15.3460248278
  C        46.1352358780       26.6206611707       15.2814361130
  C        46.0874592055       26.5799899984       12.4735526401
  C        22.4657161782        3.2540551768       10.2520083322
  C        23.1734435815        4.3598088926       10.9638975786
  C        24.1855041875        4.0680334116       11.8921069012
  C        24.8252146594        5.0949495751       12.5813348147
  C        24.4719415430        6.4415011796       12.3644465896
  C        23.4845896833        6.7267825678       11.4029282633
  C        22.8406416267        5.7001202058       10.7134608616
  C        25.1058919187        7.5349025111       13.1412696487
  C        25.0856963597        7.5280892458       14.5631497602
  C        24.3820609158        6.5318844067       15.3109354560
  C        26.5562347879       17.8247027856        5.7910121597
  C        25.2566429266       17.8875246455        5.0637400110
  C        25.0001254961       18.9096494825        4.1366100121
  C        23.7932214250       18.9408052254        3.4421886849
  C        22.8108046103       17.9536879472        3.6555214137
  C        23.0621829936       16.9547133218        4.6144825755
  C        24.2703395982       16.9183610914        5.3070388889
  C        21.5453632208       17.9501194404        2.8831696205
  C        21.5543818853       17.9490006414        1.4613923096
  C        22.7652728090       17.8457425484        0.7064911305
  C        34.4174064532       17.2184977555        5.9136863956
  C        35.7103779408       17.1511465727        5.1723180608
  C        35.9017921734       16.1835098993        4.1734992039
  C        37.0849393154       16.1544371518        3.4396762796
  C        38.1074483344       17.0933757919        3.6804497658
  C        37.9169291917       18.0415135521        4.7044205590
  C        36.7330868424       18.0745631593        5.4380172177
  C        39.3623242844       17.0933648731        2.8924808139
  C        39.3588527294       17.1015000436        1.4697386675
  C        38.1521021133       17.2153490763        0.7098087346
  C        20.3106991521       17.9660703200        0.7489451679
  C        20.3197490457       17.9389729160        3.5613763496
  C        34.4494635339       17.1891771131       10.1767068012
  C        35.7534629128       17.1156076046       10.8970641910
  C        35.9895908969       16.1137003300       11.8513746865
  C        37.1751285347       16.1033782829       12.5816214948
  C        38.1579979449       17.0904275777       12.3736342873
  C        37.9308887843       18.0658341337       11.3844149217
  C        36.7416314967       18.0840547772       10.6601129392
  C        39.4062313759       17.1109718259       13.1700929810
  C        39.3814814804       17.1091705336       14.5915322284
  C        38.1626560512       17.2150925833       15.3328107944
  C        35.1110280404       26.6445762754       15.2860497418
  C        35.1436582906       26.6590160697       12.4763290532
  C        26.5602208900       17.8240421413       10.3249883618
  C        25.2488061899       17.8783485579       11.0284414209
  C        24.9681032821       18.9175032366       11.9285816083
  C        23.7504180123       18.9496600701       12.6015004114
  C        22.7855608162       17.9448527038       12.3940589154
  C        23.0591110730       16.9299554991       11.4595945072
  C        24.2778835136       16.8942966166       10.7860906707
  C        21.5209633926       17.9366635155       13.1642354467
  C        21.5412513317       17.9416692737       14.5850182642
  C        22.7589889389       17.8427869392       15.3300548980
  C        14.0447728362       17.8319590853       10.2839269506
  C        15.3507612358       17.8968158923       11.0015829216
  C        15.6098831379       18.9130030191       11.9340034527
  C        16.8200521858       18.9405112912       12.6231014541
  C        17.8018056262       17.9544726410       12.4004400633
  C        17.5484947266       16.9633391867       11.4341186270
  C        16.3378650007       16.9316112638       10.7461864774
  C        19.0677209721       17.9422860993       13.1708404392
  C        19.0601425095       17.9453771977       14.5923465017
  C        17.8493018459       17.8452849501       15.3473510895
  C        46.8034373808       17.2182792229       10.1589962651
  C        45.5122734366       17.1542723528       10.9041393610
  C        45.3055023753       16.1731462381       11.8863898456
  C        44.1229656925       16.1513193461       12.6214401655
  C        43.1160820034       17.1108433947       12.3974078992
  C        43.3203319049       18.0719138634       11.3886189847
  C        44.5034866181       18.0973319940       10.6540946779
  C        41.8615768881       17.1165387333       13.1853643187
  C        41.8654531594       17.1069981787       14.6078030457
  C        43.0734372188       17.2004060413       15.3683280426
  C        20.3036982856       17.9615590109       15.3049166014
  C        20.2929845592       17.9169896125       12.4924320996
  C        46.7821514738       17.2306641927        5.8879844110
  C        45.4772668947       17.1210717147        5.1727999225
  C        45.2582799289       16.1184524072        4.2154687961
  C        44.0689354659       16.0855995669        3.4907433563
  C        43.0667013626       17.0520799757        3.7051141942
  C        43.2762173493       18.0247297754        4.7009254665
  C        44.4668243542       18.0639470296        5.4208022106
  C        41.8188663548       17.0684486773        2.9076277083
  C        41.8436057929       17.0811792167        1.4861261139
  C        43.0629021516       17.1856850843        0.7451584991
  C        46.1529886436       26.6370978453        0.7261864604
  C        46.1619415593       26.6559800137        3.5358203523
  C        14.0397175709       17.8289339443        5.7066373731
  C        15.3536177413       17.8999822965        5.0066874470
  C        15.6227730787       18.9248123341        4.0876340672
  C        16.8465842946       18.9643882552        3.4247671805
  C        17.8254970973       17.9781231397        3.6569310671
  C        17.5619284132       16.9790155145        4.6109894763
  C        16.3402915800       16.9392109076        5.2778161933
  C        19.0914728647       17.9632963131        2.8893832845
  C        19.0727388434       17.9553677740        1.4684949859
  C        17.8555126228       17.8496338944        0.7235259617
  C        28.8078449875       14.0830174542       10.3596608969
  C        28.2138083089       12.9039048488       11.0478874199
  C        28.9458795412       12.1793077858       11.9999563079
  C        28.3582165516       11.1013575106       12.6575998471
  C        27.0266030746       10.7264352088       12.3871549749
  C        26.3178362625       11.4320426169       11.3979607830
  C        26.9020817809       12.5095101647       10.7386478650
  C        26.3625024544        9.6443484878       13.1487990912
  C        26.3390593141        9.6704893094       14.5695800569
  C        26.8398408243       10.7817609158       15.3192652080
  C        32.1766190522       21.2387284649       10.1089905607
  C        32.7592252199       22.4035231045       10.8377757227
  C        32.0092353888       23.0633551766       11.8241406101
  C        32.5731590506       24.1025197231       12.5595283662
  C        33.9019651146       24.5113365823       12.3312320294
  C        34.6334797584       23.8679405126       11.3141793343
  C        34.0734647046       22.8235784097       10.5808747663
  C        34.5267672499       25.5886589637       13.1348614739
  C        34.5188550803       25.5606727755       14.5573294719
  C        34.0132800055       24.4449325992       15.2963472757
  C        25.7177989141        8.5948194385       15.2822105756
  C        25.7288466902        8.5949597151       12.4704311847
  C        32.0797447752       21.1920288334        5.8479635437
  C        32.6608470441       22.3566487634        5.1144815997
  C        31.9338820627       23.0033804309        4.1028389358
  C        32.5094351135       24.0455936459        3.3786908755
  C        33.8277292059       24.4689020158        3.6416600126
  C        34.5354645594       23.8356363682        4.6819116996
  C        33.9638679218       22.7917161638        5.4049460685
  C        34.4701113985       25.5517969346        2.8592343511
  C        34.4902121550       25.5420613827        1.4363624622
  C        33.9989349176       24.4363516944        0.6732236142
  C        40.6063817542       17.0786533132        0.7615771105
  C        40.5869432972       17.0925589539        3.5715929134
  C        28.6600000970       14.0612871793        5.8204129011
  C        28.0587899713       12.9153093710        5.0802628611
  C        28.8183031378       12.1973548409        4.1434554890
  C        28.2471607499       11.1426089521        3.4368675181
  C        26.9024505908       10.7780527625        3.6454682564
  C        26.1593140002       11.4810086416        4.6120888130
  C        26.7282511372       12.5379808815        5.3194841873
  C        26.2760481725        9.6853937533        2.8651470958
  C        26.2962115943        9.6917355705        1.4440500891
  C        26.8173042442       10.7929775532        0.6949988636
  C        18.1353331117        3.1808202757       10.3171628726
  C        17.4056914943        4.2779592199       11.0157239285
  C        16.3898316111        3.9993225406       11.9429909624
  C        15.7417848653        5.0391137500       12.6064885756
  C        16.0935189133        6.3829000630       12.3669998839
  C        17.0830318966        6.6527105399       11.4034574522
  C        17.7324372366        5.6155479132       10.7384092219
  C        15.4689562096        7.4904655141       13.1300707506
  C        15.4843132091        7.4898624235       14.5517901460
  C        16.1859820190        6.4963175710       15.3049411282
  C        42.9456615624       31.8594124274       10.0728282434
  C        43.6459778686       30.7716787232       10.8167851783
  C        44.5916972268       31.0929897012       11.8026684790
  C        45.1973730040       30.0874337036       12.5503398607
  C        44.8707043121       28.7344136075       12.3356303064
  C        43.9446956051       28.4200789519       11.3225960912
  C        43.3358991014       29.4252346279       10.5745524941
  C        45.4882897589       27.6551231979       13.1388225092
  C        45.4925030747       27.6807686610       14.5605133326
  C        44.8054558168       28.6888617435       15.3071104027
  C        14.8553651193        8.5623779511       15.2641468719
  C        14.8735753918        8.5621602180       12.4514785518
  C        42.9463790167       31.9615433906        5.8090036798
  C        43.6915072879       30.8853580549        5.0954506128
  C        44.6563467141       31.1912441615        4.1233988777
  C        45.2777774060       30.1716406052        3.4056121607
  C        44.9536440484       28.8213742205        3.6429894432
  C        44.0198463453       28.5237131392        4.6534627515
  C        43.3916781790       29.5405002430        5.3656945099
  C        45.5626767930       27.7239662414        2.8577449996
  C        45.5330312803       27.7172720593        1.4364532667
  C        44.8267306986       28.7075154020        0.6835025490
  C        35.0983808480       26.6339405469        0.7320287528
  C        35.0836265043       26.6099863833        3.5425129930
  C        18.1485394567        3.2467382101        5.7065590680
  C        17.4298849946        4.3435616908        4.9971289499
  C        16.4145230757        4.0522060455        4.0737729717
  C        15.7660220407        5.0827742908        3.3984424608
  C        16.1206475870        6.4280319741        3.6210386789
  C        17.1121880346        6.7115124110        4.5780966555
  C        17.7600123778        5.6826544486        5.2578151096
  C        15.4899863884        7.5236700250        2.8486123633
  C        15.4956774629        7.5069767184        1.4274664250
  C        16.1923730489        6.5052361217        0.6807563839
  H        10.6722218606       12.4662415654        3.9040263257
  H        11.6941909761       10.5512766159        2.6622371147
  H        15.3907459792       11.1673326684        4.7730156215
  H        14.3504750162       13.0701848101        6.0183003522
  H        13.3754213524       11.6307053089        1.2011800283
  H        50.3224063726       22.7485644177        3.9869299291
  H        49.3191542161       24.6228827135        2.6808033713
  H        45.6417330513       24.1611518909        4.8637549676
  H        46.6626920324       22.2903269695        6.1721017751
  H        47.6294550691       23.5757539688        1.2461623115
  H        14.8716223232        8.5878621166        4.6085134192
  H        50.2865993483       22.7023573295       12.0605266447
  H        49.2685847805       24.5752085117       13.3605596004
  H        45.6102814073       24.1094187007       11.1456295788
  H        46.6524069633       22.2541506167        9.8313185926
  H        47.6074243289       23.5516686686       14.7968598643
  H        40.6441556785       17.1120970018       11.4175485066
  H        48.6869788365       14.0950739028        7.8000042000
  H        10.6808703589       12.4671766790       12.0937396184
  H        11.6886122630       10.5250482182       13.2975033146
  H        15.3920330249       11.1568241891       11.2044526233
  H        14.3640177685       13.0854104716        9.9890353363
  H        13.3747793667       11.6214939980       14.7530438599
  H        47.9301381036       14.2180409609        9.7109047402
  H        47.7798781696       14.3735741485        6.4952026742
  H        49.0827568558       18.5523349960       10.8671076835
  H        10.4157748120       14.1343158138        7.9987255337
  H        24.4759596187        3.0255921801        3.9121656314
  H        25.6044189213        4.8839545440        2.6721423335
  H        23.1998203314        7.7491656955        4.7951630288
  H        22.0919639605        5.8814274449        6.0390263720
  H        23.8083832184        5.7777822644        1.2224223553
  H        36.3683911820       32.1868401311        3.9705765315
  H        35.2333832763       30.3686645493        2.6947260986
  H        37.4962714768       27.4355327144        4.8804076646
  H        38.6114417731       29.2666414498        6.1658577480
  H        36.9941750026       29.4507570132        1.2685675911
  H        25.6688971847        8.6148807648        4.6250972860
  H        36.4479387824       32.2428171858       12.1073420819
  H        35.3239780523       30.4297780932       13.3963923799
  H        37.5032381230       27.4859506642       11.1396329689
  H        38.6018288346       29.3109776490        9.8373385284
  H        37.0125596614       29.4706213174       14.8212118677
  H        46.1088162080       26.5873963227       11.3855165074
  H        44.6682047290       35.1161536005        7.8141397153
  H        24.4596888722        3.0282932719       12.0554117134
  H        25.6121001140        4.8634850623       13.2960527804
  H        23.2018387829        7.7627749781       11.2276344673
  H        22.0616620604        5.9158592127        9.9858487427
  H        23.8183026618        5.7755255312       14.7727278090
  H        44.9535542583       34.3898124456        9.6946733937
  H        44.9018463187       34.2068305421        6.4907112158
  H        40.6649485009       33.2082344562       10.8527130348
  H        23.1501613517        1.9576930563        8.0029034203
  H        25.7546778693       19.6765209077        3.9768840021
  H        23.5958271464       19.7377584971        2.7284670599
  H        22.3119590447       16.1852995675        4.7849382322
  H        24.4792662848       16.1350129987        6.0318833020
  H        23.7056279868       17.7358944806        1.2388115822
  H        35.1046521211       15.4695633664        3.9785737878
  H        37.2311619309       15.3951532276        2.6745554382
  H        38.6964503178       18.7762065553        4.8952800563
  H        36.5719692808       18.8223317141        6.2111340755
  H        37.2108674602       17.3350622057        1.2385869511
  H        20.3222815612       17.9632721491        4.6496349542
  H        35.2299151391       15.3531975598       12.0169764843
  H        37.3539491840       15.3250140110       13.3202741728
  H        38.6833294670       18.8339246673       11.2177327811
  H        36.5455680822       18.8552990846        9.9188331015
  H        37.2294682744       17.3322280057       14.7892812155
  H        35.1172918637       26.6852702007       11.3885578868
  H        28.5110404293       21.0936237355        7.8928188472
  H        25.7134953917       19.6942647353       12.0827175863
  H        23.5315822298       19.7568876629       13.2971749098
  H        22.3201655545       16.1482625767       11.2960650069
  H        24.5072333756       16.0997877703       10.0799666773
  H        23.6944986045       17.7312537515       14.7898002454
  H        28.9653302159       21.7294255635        9.7101664914
  H        29.1695113796       21.7190098083        6.5184866333
  H        32.1285711047       18.6298339901       10.9327606114
  H        27.3553155983       19.0729830459        8.0817207281
  H        14.8521154975       19.6746337734       12.1034245681
  H        17.0199463058       19.7325796902       13.3415503993
  H        18.2983865201       16.1954988383       11.2553057567
  H        16.1271896531       16.1540158168       10.0158955678
  H        16.9094171217       17.7307529185       14.8153354989
  H        46.0886227221       15.4405607436       12.0671117256
  H        43.9643739378       15.3819604209       13.3739373724
  H        42.5520913530       18.8215164505       11.2103783771
  H        44.6760096103       18.8538016564        9.8920496175
  H        44.0155760246       17.3171321598       14.8404124802
  H        20.2907770166       17.9352590666       11.4040708651
  H        46.0361145048       15.3787122497        4.0401147456
  H        43.9041570911       15.3069273041        2.7491332445
  H        42.5088545499       18.7763444886        4.8743371583
  H        44.6475806977       18.8344667145        6.1663487226
  H        43.9971905860       17.2898153858        1.2892463432
  H        46.1986900025       26.6825338070        4.6232683850
  H        52.7411311209       21.0626628663        8.1946021049
  H        14.8636534121       19.6836540517        3.9115596008
  H        17.0582184972       19.7621642666        2.7160880488
  H        18.3109669192       16.2114090249        4.7941316194
  H        16.1190523831       16.1575438334        6.0004725045
  H        16.9202676024       17.7385351953        1.2640287420
  H        52.3222810900       21.6736366677        6.2947834688
  H        52.0135115702       21.7025949434        9.4954872426
  H        49.0668354211       18.6075989872        5.2042474933
  H        13.2470775931       19.0165980813        7.9760201061
  H        29.9689380244       12.4812728215       12.2137385582
  H        28.9258100586       10.5382601079       13.3952701928
  H        25.2890040365       11.1513161349       11.1823993125
  H        26.3520490760       13.0762654157        9.9915071758
  H        27.2153192512       11.6479526466       14.7827245894
  H        30.9895832993       22.7346876468       12.0117995075
  H        31.9850971854       24.6119032064       13.3198190780
  H        35.6619584977       24.1720898911       11.1306790518
  H        34.6463349228       22.3042617780        9.8160279713
  H        33.6613310301       23.5736622879       14.7514722939
  H        25.7648701939        8.5770084889       11.3826012703
  H        30.9226513055       22.6653543692        3.8873488691
  H        31.9367395590       24.5469275615        2.6015049068
  H        35.5559053632       24.1487083066        4.8930260188
  H        34.5187482106       22.2824851354        6.1893465306
  H        33.6362591187       23.5581253291        1.1995917586
  H        40.5798290957       17.0586537244        4.6594190166
  H        32.5202173671       14.1418983033        8.1833030167
  H        29.8588907293       12.4736086134        3.9895843952
  H        28.8417100538       10.5821562750        2.7186770571
  H        25.1189027049       11.2094391223        4.7784621485
  H        26.1527070989       13.0975959560        6.0531197287
  H        27.1745654079       11.6677517245        1.2305046116
  H        33.2878876341       14.2292394247        6.3458150283
  H        33.4072697640       14.3762384929        9.5405733384
  H        32.0726481503       18.5064418182        5.1024740611
  H        30.1915640418       14.1400521259        8.0742636244
  H        16.1179443430        2.9627414993       12.1292240441
  H        14.9522076945        4.8195015575       13.3219404877
  H        17.3653263145        7.6856558755       11.2105178352
  H        18.5145877237        5.8183874266       10.0107314798
  H        16.7524761715        5.7389508065       14.7714097020
  H        44.8281164511       32.1400630522       11.9767147016
  H        45.9373667423       30.3411495116       13.3061714884
  H        43.6817800806       27.3780372896       11.1526574432
  H        42.5990916069       29.1899515455        9.8100530452
  H        44.2301262787       29.4366307801       14.7687798598
  H        14.8497762206        8.5453047527       11.3632599579
  H        44.9001263578       32.2339109228        3.9321750222
  H        46.0248608754       30.4128261223        2.6525373697
  H        43.7625348678       27.4840146825        4.8447218758
  H        42.6449142987       29.3177549854        6.1238966969
  H        44.2682570893       29.4704236251        1.2180959178
  H        35.0407490260       26.6228753217        4.6300116082
  H        36.6051513636       35.1338156768        8.1807513247
  H        16.1434492564        3.0126015143        3.9041841588
  H        14.9735466525        4.8558319030        2.6885541177
  H        17.3956528746        7.7470030242        4.7549171904
  H        18.5428894217        5.8931608331        5.9825630649
  H        16.7638852733        5.7550443141        1.2191807140
  H        36.2787130587       34.4819775942        6.2732899437
  H        36.3807569640       34.2091861032        9.4999345999
  H        40.5795261800       33.2021024296        5.1538929903
  H        17.4708309964        1.9468980433        7.9739934646
  H        28.6130569972       18.9761776091       12.2177141773
  H        28.6094236611       18.8863239276        3.7652569446
  H        30.6904501355       15.2693689115        3.7957475734
  H        32.4482881532       16.3877450189       12.2727343327
  H        18.8536446166        0.8689534575       12.3352646460
  H        40.5282465721       35.2289892401        3.9521546642
  H        42.3235791846       34.4187140583        3.5904142303
  H        22.0874413962        0.6921299665       12.3516226785
  H        11.5966221278       18.7129388374       12.3825895583
  H        52.2646408688       18.4312969181        3.6774259304
  H        49.2552058427       16.4763473385        3.5840385896
  H        10.1503435278       15.7982758918       12.2925868720
  H        50.8498135761       17.6926453106        3.9540192874
  H        10.0460271902       17.3947272237       12.0519278213
  H        20.2149414950        0.0020290759       12.0419702566
  H        39.1836237966       36.1243069422        3.6864631940
 Ni        30.5617552664       17.5958924258        3.4170054305
 Ni        30.4392753890       17.5764768973       12.6566489075
  O        10.6497560419       14.3652273232        5.4857899310
  O        12.6130247082       14.6574157521        6.5838401110
  O        49.1476156291       16.8459698754        7.9896481938
  O        50.3500747415       20.9363223637        5.6482796016
  O        48.3484471982       20.5932469622        6.6659433819
  O        11.0507943933       17.0541143905        6.5006037673
  O        50.3206728017       20.8816843363       10.4068455875
  O        48.3465953461       20.5866388626        9.3270129729
  O        49.5433250868       18.2484179293       10.0682879662
  O        12.3587636936       18.6246447298        7.9996550949
  O        48.6931441774       14.1486749781        6.7512683861
  O         8.2098325611       14.2104490967        9.3225460391
  O        10.7352516433       14.5067850648       10.6643571041
  O        12.5717093673       14.5827153245        9.3285525887
  O        22.8441476443        2.0421480806        5.4873956792
  O        21.6045914917        3.5917840182        6.5897387269