     587
 i =      140, E =     -4853.4746410420
  C        11.8588530822       14.0535345326       13.7363327887
  C        12.4558049366       12.8907852829       13.0175948075
  C        11.7032777807       12.1723045060       12.0762398696
  C        12.2787136928       11.1098342732       11.3836355711
  C        13.6191679032       10.7392933419       11.6108175219
  C        14.3532300704       11.4425527880       12.5838294045
  C        13.7813058106       12.5078592511       13.2756146613
  C        14.2572997379        9.6480199277       10.8372625135
  C        14.2515556948        9.6556613032        9.4155932187
  C        13.7390433458       10.7582371649        8.6619346156
  C        49.1303345224       21.2269447156       13.8726186011
  C        48.5547149190       22.3934928944       13.1436250831
  C        49.3041307837       23.0584370312       12.1608489437
  C        48.7356572679       24.0942499011       11.4242606998
  C        47.4046692030       24.4941517960       11.6521975549
  C        46.6744804683       23.8483182074       12.6681671774
  C        47.2384033039       22.8070031536       13.4007694928
  C        46.7723037289       25.5699003649       10.8552753452
  C        46.7605141758       25.5436596040        9.4337500021
  C        47.2638327110       24.4322206915        8.6873186381
  C        14.8536542324        8.5684283299        8.7021073703
  C        14.8874290129        8.5955953455       11.5136255491
  C        49.1140647557       21.2037356455        2.1485950627
  C        48.5290431172       22.3671567048        2.8718324910
  C        49.2683545853       23.0307679601        3.8625509768
  C        48.6909250674       24.0658449551        4.5921012407
  C        47.3595430411       24.4590620672        4.3539982586
  C        46.6393010823       23.8119787877        3.3320326158
  C        47.2141153489       22.7758658493        2.6018802655
  C        46.7184696144       25.5305974638        5.1465326734
  C        46.7309453298       25.5225285814        6.5679681117
  C        47.2504273979       24.4226826620        7.3209009713
  C        40.6373177357       17.1093178278        7.3235310491
  C        40.6564470246       17.1495331831        4.5144474171
  C        11.8826276135       14.0864830581        2.2902729078
  C        12.4702634456       12.9101037167        2.9940162623
  C        11.7112284162       12.1781429938        3.9198359329
  C        12.2760130180       11.0950158184        4.5883883825
  C        13.6143599833       10.7198210536        4.3567957907
  C        14.3537930779       11.4340190605        3.3961493730
  C        13.7902425692       12.5159947594        2.7234009394
  C        14.2461902959        9.6224428126        5.1271135420
  C        14.2455925352        9.6426718918        6.5488152497
  C        13.7375198605       10.7523907454        7.2958982510
  C        22.3883218032        3.2520063786       13.6326583157
  C        23.1173335024        4.3593527855       12.9547852877
  C        24.1480999337        4.0824581479       12.0450584267
  C        24.8120754873        5.1256439582       11.4057464451
  C        24.4570531568        6.4667582947       11.6520710863
  C        23.4535415161        6.7351834181       12.5998119100
  C        22.7891738516        5.6934381545       13.2424336041
  C        25.0845438446        7.5710686902       10.8905819559
  C        25.0623884494        7.5603036674        9.4694673450
  C        24.3473581575        6.5682049163        8.7262935870
  C        38.3005002774       31.9296840738       13.8443437567
  C        37.5712449292       30.8395141327       13.1385318457
  C        36.6188297583       31.1423768482       12.1534170086
  C        36.0041421595       30.1209810188       11.4350274530
  C        36.3268265295       28.7719265783       11.6807026869
  C        37.2479363442       28.4768672199       12.7033977416
  C        37.8677674584       29.4968291733       13.4199805616
  C        35.7275851913       27.6794443107       10.8831258425
  C        35.7643350561       27.6927219261        9.4620265797
  C        36.4765997505       28.6912942803        8.7257021196
  C        25.7013504085        8.6187283774        8.7479969474
  C        25.6877618767        8.6422610892       11.5612477525
  C        38.3307474812       31.9635656203        2.1564941043
  C        37.6108294332       30.8890708967        2.8995795075
  C        36.6923417410       31.1993132728        3.9142070673
  C        36.0838938481       30.1818692857        4.6467765229
  C        36.3790440703       28.8282191711        4.3883811443
  C        37.2755071591       28.5283352390        3.3441718680
  C        37.8861604092       29.5423052308        2.6127037251
  C        35.7702417888       27.7295173525        5.1731920205
  C        35.7861316564       27.7180342268        6.5953177383
  C        36.4869871902       28.7034838430        7.3591069786
  C        46.1296714079       26.6110674837        7.2808969787
  C        46.0806600021       26.5782931317        4.4732203703
  C        22.3386499382        3.2483218469        2.3807138058
  C        23.0502298943        4.3562945483        3.0879065978
  C        24.0789580527        4.0708558925        3.9994235407
  C        24.7463403367        5.1028661639        4.6549288336
  C        24.4031547236        6.4499538663        4.4235512988
  C        23.3970426151        6.7286377630        3.4798260232
  C        22.7279547239        5.6967172298        2.8221889352
  C        25.0573320299        7.5471449130        5.1803971430
  C        25.0493561214        7.5472784641        6.6028132852
  C        24.3394428515        6.5631388185        7.3604912992
  C        26.6243908334       17.8648355195       13.7819626489
  C        25.3182561661       17.9082020189       13.0538470980
  C        25.0786072014       18.8809727946       12.0700487059
  C        23.8645969190       18.9035297409       11.3853398117
  C        22.8568186433       17.9552891494       11.6571828744
  C        23.0964393088       17.0035612626       12.6668694615
  C        24.3101473372       16.9770146825       13.3523623576
  C        21.5831982505       17.9392400986       10.8934896974
  C        21.5810411639       17.9100405374        9.4706387148
  C        22.7847951103       17.7798479372        8.7082787947
  C        34.4730090988       17.2557005625       13.9543710075
  C        35.7558079167       17.1983318930       13.1917692168
  C        35.9637999984       16.1979924493       12.2298937967
  C        37.1355062474       16.1757110476       11.4785685138
  C        38.1325220335       17.1500424215       11.6752060702
  C        37.9278320202       18.1333083769       12.6612154469
  C        36.7513870027       18.1625650182       13.4063883140
  C        39.3844075227       17.1413116556       10.8856496044
  C        39.3787656653       17.1344718382        9.4646411354
  C        38.1698005817       17.2357837338        8.7061376515
  C        20.3336102012       17.9271294393        8.7633085985
  C        20.3579650351       17.9458728962       11.5762410272
  C        34.4768024310       17.2439127891        2.1889716069
  C        35.7847594626       17.1605702828        2.9039444458
  C        36.0289477326       16.1303215016        3.8252332907
  C        37.2110784161       16.1099516126        4.5601747897
  C        38.1808967408       17.1158409884        4.3835820257
  C        37.9487744242       18.1172998863        3.4241329696
  C        36.7613175238       18.1448772074        2.6972042929
  C        39.4271200030       17.1283069061        5.1799993252
  C        39.4007276229       17.1273840369        6.5998372337
  C        38.1801041177       17.2293487274        7.3393956194
  C        35.1524571603       26.6400007079        7.2987941264
  C        35.1704070813       26.6644536334        4.4899646790
  C        26.5683231272       17.8252978763        2.3322315363
  C        25.2531435919       17.8769265446        3.0341704054
  C        24.9955032870       18.8736058378        3.9875411690
  C        23.7776124936       18.8995224405        4.6608972689
  C        22.7889031013       17.9283690507        4.4055011293
  C        23.0405237061       16.9580886939        3.4183456722
  C        24.2586047452       16.9302781977        2.7426209334
  C        21.5267108230       17.9067246181        5.1801681773
  C        21.5522918645       17.8924230475        6.6017358077
  C        22.7711259570       17.7719741550        7.3421207360
  C        14.0467182492       17.8287445151        2.2945057260
  C        15.3500789253       17.8853310291        3.0208696348
  C        15.6041800550       18.8854227808        3.9725452979
  C        16.8125386967       18.9058741212        4.6663936196
  C        17.8013029553       17.9292708035        4.4306048005
  C        17.5518755572       16.9536278974        3.4468400972
  C        16.3429008170       16.9282949859        2.7547430116
  C        19.0706902116       17.9122738395        5.1988654696
  C        19.0709799392       17.9061076970        6.6214010421
  C        17.8650446156       17.8049990065        7.3839243176
  C        46.8076347912       17.2185447182        2.1632129948
  C        45.5192041322       17.1569895008        2.9099682369
  C        45.3143002978       16.1764165423        3.8924934127
  C        44.1341131693       16.1584661805        4.6302651932
  C        43.1313477407       17.1214854584        4.4062332887
  C        43.3336271017       18.0823315536        3.3975670337
  C        44.5144611150       18.1038724314        2.6606460449
  C        41.8794354438       17.1305957058        5.1944275288
  C        41.8843580503       17.1256526451        6.6157549661
  C        43.0932504494       17.2212798105        7.3745204313
  C        20.3185792392       17.9171536104        7.3283281273
  C        20.2938971438       17.8965929637        4.5150469007
  C        46.7870995780       17.2315872626       13.8848653752
  C        45.4842333837       17.1282282561       13.1691940743
  C        45.2631899107       16.1278592103       12.2108677514
  C        44.0758641162       16.1043497016       11.4837689693
  C        43.0817900576       17.0783455927       11.6989558238
  C        43.2927902164       18.0484067963       12.6961825291
  C        44.4811265674       18.0780122099       13.4183916208
  C        41.8371468099       17.1034379523       10.9013050193
  C        41.8627947852       17.1107721583        9.4808665824
  C        43.0829817129       17.2110334796        8.7408132275
  C        46.1482627838       26.6232245944        8.7151348069
  C        46.1598475020       26.6352682955       11.5245741810
  C        14.0472052743       17.8323732056       13.7037126222
  C        15.3691476710       17.9083522348       13.0147453877
  C        15.6418890845       18.9216526322       12.0834371362
  C        16.8714872751       18.9596763149       11.4294135865
  C        17.8571356941       17.9837121006       11.6805185426
  C        17.5914711937       17.0000535868       12.6506790382
  C        16.3638485007       16.9613460184       13.3080792840
  C        19.1245395099       17.9579302724       10.9107788427
  C        19.0990807002       17.9281407987        9.4892772388
  C        17.8788434513       17.8148319981        8.7499396502
  C        28.8054042251       14.0936070244        2.4020306753
  C        28.1970049049       12.9147766481        3.0881847808
  C        28.9335121533       12.1530765607        4.0079549146
  C        28.3389067339       11.0733065072        4.6571593336
  C        26.9941666307       10.7309058508        4.4093602418
  C        26.2782981885       11.4741758340        3.4541534666
  C        26.8704774167       12.5542436955        2.8039962255
  C        26.3280302697        9.6485851808        5.1709237507
  C        26.3211510144        9.6769363614        6.5917558120
  C        26.8399938775       10.7848142703        7.3355405544
  C        32.1738369793       21.2480107665        2.1582674873
  C        32.7627563162       22.4167574692        2.8727666005
  C        32.0250230539       23.0725073202        3.8704980337
  C        32.5956019990       24.1137229502        4.5957913068
  C        33.9197191502       24.5241094924        4.3473118542
  C        34.6383096431       23.8866070264        3.3178745858
  C        34.0701507477       22.8420212556        2.5922487349
  C        34.5543828142       25.5944931197        5.1487217669
  C        34.5536936591       25.5601708230        6.5706335903
  C        34.0432469778       24.4454203511        7.3084055311
  C        25.6991864588        8.6088030210        7.3138352871
  C        25.6818361469        8.6012230672        4.4999790399
  C        32.0875670133       21.2588849330       13.9151006454
  C        32.6835001816       22.3978501104       13.1563911121
  C        31.9535847459       23.0451804858       12.1475472896
  C        32.5386505363       24.0654976684       11.4005834507
  C        33.8654508741       24.4697012898       11.6459419098
  C        34.5792156002       23.8328881658       12.6796567805
  C        34.0004948517       22.8054304850       13.4197525533
  C        34.5090922784       25.5475378050       10.8594696775
  C        34.5289983512       25.5376087414        9.4374709210
  C        34.0297703623       24.4354737759        8.6749666915
  C        40.6257846595       17.1072945044        8.7571778154
  C        40.6067674841       17.1404827249       11.5659085590
  C        28.7481697725       14.0707085223       13.8235546747
  C        28.1308300351       12.9292272681       13.0754451568
  C        28.8827456170       12.1986918759       12.1415729000
  C        28.3024374053       11.1438722758       11.4393680719
  C        26.9537576860       10.7905149012       11.6502591213
  C        26.2179611777       11.5093526883       12.6098185508
  C        26.7970114645       12.5657376369       13.3119024535
  C        26.3134318427        9.6957803540       10.8810028380
  C        26.3151817199        9.7008829689        9.4596274424
  C        26.8354459797       10.7968741108        8.7014134924
  C        18.1303408428        3.1858911870        2.3165251724
  C        17.3965907670        4.2817232217        3.0121150630
  C        16.3848467541        3.9995165443        3.9426091566
  C        15.7362599872        5.0372930044        4.6086273305
  C        16.0843489239        6.3818794626        4.3688702620
  C        17.0696569895        6.6550444511        3.4020549201
  C        17.7187684248        5.6198926214        2.7337636635
  C        15.4603173101        7.4881471245        5.1336225345
  C        15.4764187806        7.4874561384        6.5552788409
  C        16.1776748673        6.4933485235        7.3080560070
  C        42.9393357150       31.8566066852        2.0771153228
  C        43.6352104933       30.7698499139        2.8255310208
  C        44.5816741550       31.0891742642        3.8113324475
  C        45.1862464948       30.0824536169        4.5582421822
  C        44.8586021156       28.7299847518        4.3418323543
  C        43.9309282414       28.4175747581        3.3297234844
  C        43.3227633923       29.4238813814        2.5828533197
  C        45.4785050933       27.6496055629        5.1417543724
  C        45.4834368292       27.6713376911        6.5633367818
  C        44.7935019516       28.6751183743        7.3128861007
  C        14.8488653148        8.5605811167        7.2679652208
  C        14.8655387427        8.5603243362        4.4554917109
  C        42.9329723439       31.9476181475       13.7719451066
  C        43.6783960760       30.8630799139       13.0724660713
  C        44.6456724424       31.1670310800       12.1019978712
  C        45.2722288932       30.1460936551       11.3926171353
  C        44.9476417666       28.7972571692       11.6351674108
  C        44.0132734533       28.5012864379       12.6452950350
  C        43.3815023516       29.5201874696       13.3517271271
  C        45.5567955287       27.7019367267       10.8493357891
  C        45.5251750007       27.6990556185        9.4283079394
  C        44.8150428703       28.6893235148        8.6790346055
  C        35.1406593480       26.6276336670        8.7336190845
  C        35.1190227778       26.6061641573       11.5431927111
  C        18.1429114575        3.2471517231       13.7016076583
  C        17.4231884388        4.3427153369       12.9917607078
  C        16.4093056610        4.0505241103       12.0671722679
  C        15.7611145396        5.0808364900       11.3910677757
  C        16.1147547550        6.4262645720       11.6141832442
  C        17.1048755924        6.7104240168       12.5724827188
  C        17.7520195756        5.6819470622       13.2530883016
  C        15.4846071944        7.5219187809       10.8417491937
  C        15.4895286555        7.5049309264        9.4206740524
  C        16.1848456348        6.5024450585        8.6736614047
  H        10.6712343346       12.4670047453       11.8997507958
  H        11.6918497098       10.5516021313       10.6573742375
  H        15.3902007345       11.1673713453       12.7649835256
  H        14.3514817253       13.0709167778       14.0106284390
  H        13.3735090656       11.6309238113        9.1953234338
  H        50.3272906125       22.7390883705       11.9775547215
  H        49.3212413903       24.6087083151       10.6654676570
  H        45.6447976874       24.1490613420       12.8504753663
  H        46.6685256562       22.2837418510       14.1650230054
  H        47.6357097435       23.5657468913        9.2266151799
  H        14.8683995322        8.5869262532       12.6019446511
  H        50.2887752463       22.7092517232        4.0576696520
  H        49.2684523039       24.5835961046        5.3546962249
  H        45.6091951620       24.1072356042        3.1436981170
  H        46.6539416273       22.2510921867        1.8316693345
  H        47.6116645829       23.5483020040        6.7872461387
  H        40.6622305615       17.1268030446        3.4264156842
  H        48.6874551291       14.0949417951       15.7951524713
  H        10.6781009764       12.4687137507        4.0966253113
  H        11.6834764021       10.5251932583        5.3009107745
  H        15.3888470222       11.1544372046        3.2107048328
  H        14.3634962021       13.0847977777        1.9951531420
  H        13.3714368463       11.6213163719        6.7572571616
  H        47.9303872555       14.2186822051        1.7158129779
  H        47.7801896041       14.3744495169       14.4907265799
  H        49.0852156266       18.5528983408        2.8728109556
  H        10.4166467088       14.1340681951        0.0038188215
  H        24.4065941408        3.0441472336       11.8493038685
  H        25.6107557938        4.9121669803       10.6986559259
  H        23.1714219719        7.7677545845       12.7949368000
  H        21.9946543165        5.8902796947       13.9581302427
  H        23.7735709313        5.8220125760        9.2676648354
  H        36.3856316574       32.1854732532       11.9532172946
  H        35.2655177661       30.3585434560       10.6726511380
  H        37.5029094988       27.4376570769       12.9004384901
  H        38.6052808078       29.2768500733       14.1881516298
  H        37.0454506738       29.4377452760        9.2723854263
  H        25.7136965630        8.6317134653       12.6494578262
  H        36.4774323610       32.2442793284        4.1263177382
  H        35.3660812238       30.4286662770        5.4259239321
  H        37.5155265604       27.4874491934        3.1375415134
  H        38.6007978484       29.3149452927        1.8254491873
  H        37.0646068767       29.4589160684        6.8341514074
  H        46.1014172442       26.5882515393        3.3851957160
  H        44.6690618073       35.0296890425       15.7752961009
  H        24.3481565803        3.0319029261        4.1752524961
  H        25.5466391436        4.8740989284        5.3555186269
  H        23.1198823820        7.7641166377        3.2928226014
  H        21.9372741821        5.9094734877        2.1064263045
  H        23.7590926999        5.8133972656        6.8310182569
  H        44.9163537666       34.2780071057        1.7107958057
  H        44.8029634590       34.1087242531       14.4518636624
  H        40.6777529520       33.2003077608        2.7890807461
  C        23.7087068688        2.3142634179        0.0029279671
  H        25.8564251183       19.6104454926       11.8530937613
  H        23.6838142358       19.6667464783       10.6313651213
  H        22.3311538082       16.2618210605       12.8864743886
  H        24.5040841091       16.2304782499       14.1191128724
  H        23.7262007567       17.6585613461        9.2360314930
  H        35.1926189347       15.4456087422       12.0833689784
  H        37.2973894914       15.3929198940       10.7406402801
  H        38.6908981603       18.8936746027       12.8145314106
  H        36.5740720316       18.9346933499       14.1515678562
  H        37.2295195909       17.3499499414        9.2380295671
  H        20.3656041476       17.9932274403       12.6638251078
  H        35.2759088757       15.3541544320        3.9474821997
  H        37.4038477107       15.3096881547        5.2719429126
  H        38.6955288849       18.8960455062        3.2832833025
  H        36.5567778922       18.9346860203        1.9780659287
  H        37.2477455842       17.3395622115        6.7924893757
  H        35.1355717736       26.6955743722        3.4026114616
  H        28.5043752800       21.0778290952       15.9748710307
  H        25.7617894198       19.6193385665        4.1860019719
  H        23.5782561304       19.6764103816        5.3958255797
  H        22.2846505541       16.2025018294        3.2142359880
  H        24.4690523487       16.1694287122        1.9948005279
  H        23.7019335971       17.6442370765        6.7974486712
  H        28.9880967832       21.7256637158        1.7751908665
  H        29.1562301205       21.7409241977       14.6214275314
  H        32.0908029117       18.5772735513        3.0677933747
  H        27.3947382147       19.0624104465        0.0967189941
  H        14.8443330223       19.6425002318        4.1530228818
  H        17.0058807168       19.6877505615        5.3977080613
  H        18.3050271101       16.1919701534        3.2555873781
  H        16.1390296304       16.1616327483        2.0110238540
  H        16.9221167960       17.6876915220        6.8577914954
  H        46.0967916063       15.4425873695        4.0705501460
  H        43.9737411470       15.3908216956        5.3840886666
  H        42.5664358844       18.8336237393        3.2221808602
  H        44.6892528731       18.8591032820        1.8979966918
  H        44.0348905493       17.3356103507        6.8452017432
  H        20.2864026533       17.9310618727        3.4270610043
  H        46.0376393094       15.3842660799       12.0370681600
  H        43.9059313895       15.3286493947       10.7402686110
  H        42.5294061570       18.8043877823       12.8678247364
  H        44.6672761816       18.8454882676       14.1655889290
  H        44.0169145123       17.3159810807        9.2853170635
  H        46.1980764536       26.6600084031       12.6119893761
  H        52.7414198021       21.0627787745        0.1995845979
  H        14.8803139310       19.6734877798       11.8883736995
  H        17.0811918353       19.7485253443       10.7102025203
  H        18.3435659341       16.2403262874       12.8533405776
  H        16.1442817940       16.1884693808       14.0406442914
  H        16.9461871097       17.7052490661        9.2951179404
  H        52.3246543239       21.6733930101       14.2880889119
  H        52.0141187300       21.7026120263        1.5009286541
  H        49.0696663648       18.6069860829       13.1985079991
  H        13.2482915836       19.0159200324       15.9725633498
  H        29.9720905216       12.4175296425        4.1954549540
  H        28.9119904988       10.4809014673        5.3673687225
  H        25.2385545782       11.2207354008        3.2576286670
  H        26.3160646016       13.1491855654        2.0821946019
  H        27.2143253436       11.6464038294        6.7909612365
  H        31.0107129325       22.7399790423        4.0776795259
  H        32.0177551296       24.6199044810        5.3658542538
  H        35.6628499021       24.1948611258        3.1199366724
  H        34.6308234754       22.3248330585        1.8170552473
  H        33.6802101046       23.5786534630        6.7636658498
  H        25.7071736202        8.5813942911        3.4118396096
  H        30.9318325444       22.7287189234       11.9505691877
  H        31.9648513458       24.5665864217       10.6240193588
  H        35.6068869498       24.1330230516       12.8737330450
  H        34.5566649597       22.2912863585       14.2001768265
  H        33.6559068225       23.5619253590        9.2014274227
  H        40.5987342446       17.1154687611       12.6538822340
  H        32.5038691465       14.1507647647        0.2816451425
  H        29.9297682062       12.4629514541       12.0029197170
  H        28.8931644834       10.5676378021       10.7299499701
  H        25.1750028886       11.2487849823       12.7785290029
  H        26.2274060649       13.1344947586       14.0433795655
  H        27.2040414495       11.6681022766        9.2348826753
  H        33.3163544013       14.2444301129       14.4778156616
  H        33.4114065280       14.4215996788        1.6059177306
  H        32.1430090993       18.5383638881       13.2634136394
  H        30.2188137110       14.1953781629        0.1337470183
  H        16.1185959043        2.9617213509        4.1304695385
  H        14.9496271488        4.8153288993        5.3266095357
  H        17.3486899193        7.6888783480        3.2092161382
  H        18.4977825118        5.8244628978        2.0032416701
  H        16.7428003800        5.7351542642        6.7742122532
  H        44.8212367121       32.1353728827        3.9857432290
  H        45.9268980998       30.3346187923        5.3139238381
  H        43.6669976195       27.3759062696        3.1590472430
  H        42.5852644955       29.1900129343        1.8185530363
  H        44.2155858466       29.4226904833        6.7770543474
  H        14.8411030625        8.5434538094        3.3673027666
  H        44.8855040401       32.2095238558       11.9057552871
  H        46.0216145542       30.3840571608       10.6408275115
  H        43.7577016556       27.4618365199       12.8398962059
  H        42.6336348762       29.3009685829       14.1099822810
  H        44.2543078790       29.4486163845        9.2162996535
  H        35.0717080279       26.6210877997       12.6304096391
  H        36.6152892296       35.1370894129        0.2014039840
  H        16.1389574154        3.0107395800       11.8973193066
  H        14.9694937947        4.8534921372       10.6803499000
  H        17.3871992413        7.7461359318       12.7497741279
  H        18.5332418491        5.8925274855       13.9795572223
  H        16.7557883522        5.7516236130        9.2117847702
  H        36.2806496399       34.4864481438       14.2725351466
  H        36.4153001390       34.2004996380        1.5070020354
  H        40.5673049685       33.1989114651       13.1442752766
  H        17.5181989082        1.9579152946       15.9750223622
  H        28.8091834378       19.0249883635        4.4784427771
  H        29.7283081498       19.7328849651       11.5874144306
  H        32.0652966299       15.9312923999       11.7180852291
  H        31.1145779969       15.4641363031        4.5211222056
  H        28.1139711438       17.4659658053        6.9362112252
  H        29.5513904930       14.8352338745        6.4067227344
  H        31.7707494275       19.4725251857        9.4054989493
  H        32.8037474947       17.0407988387        9.4438024532
  H        28.5861988336       16.4288179960       10.7155137319
  H        18.8478294416        0.7839771555        4.3476035107
  H        40.5014480076       35.2368826151       11.9371859199
  H        42.2739013606       34.3544269397       11.6108090372
  H        22.0147149256        0.6971755301        4.2964998152
  H        11.5966103216       18.7132302288        4.3880681419
  H        52.2650538279       18.4310329866       11.6711749697
  H        49.2549309534       16.4768480728       11.5794739499
  H        10.1504820905       15.7984167248        4.2980104233
  H        50.8505825142       17.6922843976       11.9487755072
  H        10.0463020403       17.3947147452        4.0570084711
  H        20.5820657365       -0.0532786860        3.9971044430
  H        39.1616703456       36.1285960269       11.6917376258
 Ni        30.7832220778       17.7158236588       10.9083739073
 Ni        31.2382177861       15.9821452233        7.9929174270
 Ni        29.7594185000       19.0365965139        8.0749845873
 Ni        30.1400270911       17.3587319997        5.4922952278
  O        10.6499239044       14.3651989130       13.4807815522
  O        12.6133008819       14.6573738301       14.5787025676
  O        49.1482253170       16.8454767450       15.9846681801
  O        50.3526724135       20.9244458724       13.6399725932
  O        48.3497739994       20.5924885066       14.6610209010
  O        11.0525542866       17.0526110448       14.4956715098
  O        50.3212680330       20.8815919299        2.4116968953
  O        48.3468611111       20.5862998138        1.3316926263
  O        49.5441986720       18.2482559797        2.0733856284