     578
 i =      207, E =     -4812.1383007834
  C        11.8590234386       14.0534976863       13.7364048655
  C        12.4565397037       12.8907713672       13.0180493283
  C        11.7046294183       12.1712682879       12.0769709675
  C        12.2810873822       11.1091098760       11.3846579657
  C        13.6219271997       10.7399076706       11.6118653964
  C        14.3554062986       11.4441930400       12.5845674212
  C        13.7824516667       12.5091482484       13.2760451251
  C        14.2613714736        9.6491613008       10.8385120578
  C        14.2563669229        9.6569260489        9.4168259873
  C        13.7431908221       10.7590730146        8.6629637598
  C        49.1271811193       21.2331209364       13.8745030754
  C        48.5505178392       22.4012978534       13.1475690038
  C        49.3003768951       23.0682265243       12.1661944552
  C        48.7334849772       24.1074406929       11.4330336402
  C        47.4031608113       24.5095402013       11.6620827787
  C        46.6724932554       23.8611940536       12.6761512629
  C        47.2348924327       22.8162291380       13.4054471265
  C        46.7727664064       25.5871396133       10.8648053265
  C        46.7613864951       25.5573142606        9.4430463287
  C        47.2613371008       24.4422353455        8.6995349659
  C        14.8602431156        8.5705635624        8.7035589336
  C        14.8923224811        8.5973440456       11.5151839560
  C        49.1134367837       21.2034014929        2.1503794841
  C        48.5280779125       22.3649152057        2.8775255200
  C        49.2670970497       23.0250877354        3.8709401129
  C        48.6908422350       24.0596747914        4.6024517116
  C        47.3606679016       24.4569840126        4.3638209383
  C        46.6405501090       23.8127299568        3.3396627819
  C        47.2140396194       22.7768231945        2.6078294183
  C        46.7221618587       25.5319092327        5.1548658208
  C        46.7335557369       25.5280819650        6.5765789131
  C        47.2490180184       24.4288937040        7.3329817336
  C        40.6321514704       17.1388121987        7.3289314869
  C        40.6599500148       17.1801517703        4.5201197008
  C        11.8832845169       14.0865748015        2.2907479747
  C        12.4727252548       12.9111185786        2.9951543583
  C        11.7150332283       12.1773155030        3.9206718967
  C        12.2817574805       11.0949087107        4.5890079853
  C        13.6208659128       10.7218353481        4.3577135295
  C        14.3591302600       11.4381670149        3.3977193743
  C        13.7935769600       12.5192973320        2.7250761473
  C        14.2543594791        9.6249532513        5.1280242937
  C        14.2526691036        9.6446952438        6.5498507147
  C        13.7427215245       10.7536084608        7.2969222447
  C        22.5128212249        3.2464180485       13.7463194635
  C        23.2267583178        4.3518536272       13.0451076711
  C        24.2215233012        4.0721927647       12.0960712283
  C        24.8481213803        5.1114806424       11.4126924524
  C        24.4965683223        6.4542754470       11.6566885529
  C        23.5299998195        6.7252469808       12.6427754676
  C        22.8988370641        5.6878704355       13.3248960002
  C        25.1015158887        7.5613845443       10.8793508289
  C        25.0738477604        7.5542678469        9.4573014324
  C        24.3756353206        6.5525291286        8.7108857599
  C        38.3037536690       31.9315136348       13.8454054083
  C        37.5755609209       30.8411961200       13.1369129287
  C        36.6135043277       31.1434137706       12.1615669165
  C        35.9989057577       30.1214547254       11.4439714250
  C        36.3330666495       28.7740534224       11.6812995519
  C        37.2654045145       28.4790107672       12.6932329623
  C        37.8837936920       29.4997030922       13.4097059352
  C        35.7331525915       27.6819580476       10.8847429657
  C        35.7605953843       27.7002241091        9.4637578488
  C        36.4655101572       28.7033834809        8.7265111514
  C        25.6932716910        8.6262450148        8.7365610524
  C        25.6988639422        8.6373365749       11.5485164114
  C        38.3287995743       31.9636914334        2.1612407825
  C        37.6041766315       30.8933630696        2.9049477430
  C        36.6793675763       31.2085488740        3.9121544963
  C        36.0646227588       30.1945662013        4.6439729892
  C        36.3600946668       28.8403991206        4.3906990785
  C        37.2628464814       28.5350720231        3.3538327891
  C        37.8804074153       29.5457856863        2.6239225943
  C        35.7469189735       27.7448288018        5.1757647155
  C        35.7675654134       27.7326785759        6.5975749506
  C        36.4695327529       28.7184679404        7.3599675176
  C        46.1354278474       26.6206562094        7.2867265286
  C        46.0884214759       26.5804162772        4.4788263268
  C        22.4627433145        3.2561080575        2.2617723240
  C        23.1603683000        4.3639137749        2.9813879255
  C        24.1643428582        4.0769155232        3.9200684191
  C        24.7956434237        5.1065719260        4.6136185746
  C        24.4431048782        6.4528392375        4.3914516798
  C        23.4626477759        6.7329666560        3.4207973142
  C        22.8267959515        5.7037152526        2.7274634115
  C        25.0738114948        7.5511879642        5.1653093987
  C        25.0607116005        7.5479917595        6.5879932539
  C        24.3674977115        6.5507194665        7.3441080786
  C        26.6233218541       17.8617366786       13.7823800445
  C        25.3156789482       17.9020404624       13.0574233276
  C        25.0646388442       18.8832204847       12.0852566769
  C        23.8518374061       18.9006442269       11.3987019659
  C        22.8536949395       17.9397387387       11.6607356712
  C        23.1022268125       16.9809717029       12.6612194163
  C        24.3166242600       16.9582200649       13.3459847925
  C        21.5802739975       17.9217753185       10.8963034338
  C        21.5792828539       17.8900369186        9.4736853036
  C        22.7834236640       17.7531418603        8.7134006130
  C        34.4203663611       17.2237693266       13.9075204055
  C        35.7100916544       17.1601514435       13.1574176144
  C        35.9130406661       16.1860390653       12.1667678057
  C        37.0952080444       16.1661301186       11.4302457949
  C        38.1079398287       17.1166520132       11.6678662823
  C        37.9068298446       18.0699864627       12.6837983553
  C        36.7220323655       18.0965985697       13.4155040248
  C        39.3665033797       17.1195980603       10.8877573598
  C        39.3672229789       17.1423217168        9.4666565979
  C        38.1631965281       17.2695577194        8.7046383788
  C        20.3325493870       17.9108162517        8.7651213105
  C        20.3549848565       17.9317954862       11.5782045152
  C        34.4781420682       17.2484796927        2.1829863631
  C        35.7836738289       17.1778326274        2.9035707838
  C        36.0014503364       16.1905284966        3.8759308866
  C        37.1870739803       16.1742128320        4.6048295934
  C        38.1824271228       17.1449566453        4.3808736114
  C        37.9716097062       18.1072669689        3.3761543910
  C        36.7836547562       18.1282377089        2.6498269839
  C        39.4268623388       17.1641771469        5.1800194836
  C        39.3982386853       17.1668742045        6.6007624100
  C        38.1774475854       17.2792477734        7.3382204922
  C        35.1379135065       26.6531240259        7.3017110031
  C        35.1426088367       26.6822195541        4.4930458080
  C        26.5851638576       17.7920579094        2.3655887995
  C        25.2682790095       17.8445886475        3.0622409071
  C        25.0088898641       18.8396968152        4.0163898765
  C        23.7849714461       18.8703328491        4.6782176539
  C        22.7942832155       17.9038023001        4.4132524461
  C        23.0486376637       16.9347507330        3.4256618254
  C        24.2714373558       16.9039319414        2.7588840774
  C        21.5294510537       17.8842591004        5.1836698501
  C        21.5532985315       17.8681050998        6.6054204726
  C        22.7708938864       17.7414602436        7.3471532067
  C        14.0475971839       17.8283041586        2.2947198581
  C        15.3514604020       17.8832454050        3.0203698247
  C        15.6083412006       18.8823194608        3.9724938735
  C        16.8171590036       18.8998450024        4.6658746146
  C        17.8041215869       17.9212331710        4.4298681883
  C        17.5520666733       16.9469717472        3.4452479425
  C        16.3427895630       16.9246288135        2.7534940001
  C        19.0731495811       17.8997225359        5.1991555109
  C        19.0719481587       17.8936749928        6.6217960229
  C        17.8649993808       17.7976715608        7.3834440678
  C        46.8079030797       17.2211880348        2.1655249726
  C        45.5211760832       17.1670646552        2.9169763438
  C        45.3151561052       16.1933558163        3.9060991486
  C        44.1361168764       16.1831531683        4.6464481481
  C        43.1348046140       17.1468272349        4.4180757557
  C        43.3388801057       18.1015318944        3.4038158924
  C        44.5185621442       18.1156358490        2.6648583718
  C        41.8809456668       17.1614277909        5.2040604664
  C        41.8815907391       17.1552477675        6.6256488081
  C        43.0876822666       17.2459002429        7.3893198006
  C        20.3188198492       17.8990870347        7.3302019711
  C        20.2974183693       17.8795025773        4.5168515510
  C        46.7834119989       17.2298713511       13.8860671920
  C        45.4762655110       17.1204451178       13.1755314851
  C        45.2564698697       16.1228936590       12.2136553844
  C        44.0664279350       16.0951167235       11.4901993885
  C        43.0660374920       17.0613509927       11.7122273341
  C        43.2751133685       18.0269432707       12.7145181632
  C        44.4666833518       18.0614989561       13.4323578427
  C        41.8209660697       17.0874778838       10.9121952752
  C        41.8510560309       17.1153663216        9.4913235200
  C        43.0732635012       17.2245879468        8.7556149811
  C        46.1532031480       26.6370977312        8.7212872548
  C        46.1629506034       26.6563615842       11.5309116274
  C        14.0465671387       17.8319131842       13.7035999304
  C        15.3678072516       17.9058979422       13.0145129743
  C        15.6416454075       18.9182411498       12.0825210572
  C        16.8711844414       18.9538473106       11.4285634513
  C        17.8550848375       17.9763493236       11.6804165460
  C        17.5883594007       16.9938780636       12.6513889067
  C        16.3609159473       16.9575451169       13.3088228404
  C        19.1222814987       17.9474070430       10.9113646975
  C        19.0975562512       17.9172054855        9.4899553148
  C        17.8775538801       17.8082358037        8.7494866329
  C        28.8085965985       14.0840017113        2.3636693118
  C        28.2023248077       12.9120589517        3.0574275342
  C        28.9149804071       12.2012053249        4.0338883868
  C        28.3177732010       11.1283290740        4.6908780434
  C        26.9931820143       10.7442991167        4.3982012805
  C        26.3026295549       11.4379919555        3.3880142471
  C        26.8976369464       12.5101644371        2.7285877853
  C        26.3224396246        9.6668638127        5.1615462268
  C        26.2986419476        9.6988759722        6.5825782779
  C        26.7870606061       10.8192362259        7.3265775016
  C        32.1547542926       21.2669841722        2.1541989743
  C        32.7380982619       22.4363712692        2.8770479489
  C        31.9936315516       23.0989986935        3.8653846232
  C        32.5646547192       24.1386761460        4.5943961304
  C        33.8932669382       24.5410758859        4.3546382146
  C        34.6174960120       23.8966344535        3.3345639767
  C        34.0498230848       22.8529533980        2.6076810258
  C        34.5286508227       25.6124302109        5.1533635738
  C        34.5361667388       25.5752213149        6.5741337076
  C        34.0338154535       24.4567199337        7.3114347305
  C        25.6914351137        8.6194804331        7.3018505787
  C        25.6920792744        8.6113588312        4.4890005796
  C        32.1069971499       21.2336590141       13.8850686290
  C        32.7026469810       22.3815626170       13.1388331776
  C        31.9684574032       23.0449004209       12.1435607047
  C        32.5513147405       24.0718931510       11.4051361899
  C        33.8820698930       24.4662408832       11.6452119252
  C        34.5996740463       23.8164465913       12.6675760674
  C        34.0215252326       22.7830840795       13.4004321167
  C        34.5215764721       25.5476768590       10.8618668482
  C        34.5311445520       25.5426740860        9.4403032313
  C        34.0302838501       24.4411584863        8.6776903208
  C        40.6164647538       17.1218627554        8.7629667972
  C        40.5872920589       17.1079520361       11.5725395891
  C        28.7230421844       14.0997948442       13.7754615958
  C        28.1203901975       12.9496756940       13.0414303830
  C        28.8433376130       12.2754710197       12.0452366189
  C        28.2656204543       11.2107845263       11.3582389994
  C        26.9480626282       10.7953119720       11.6386408425
  C        26.2432802947       11.4581855001       12.6614025187
  C        26.8196692039       12.5213870421       13.3525353606
  C        26.3061415838        9.7026906034       10.8700054347
  C        26.2913570850        9.7177541368        9.4478710211
  C        26.7807240438       10.8293542987        8.6921261636
  C        18.1355076616        3.1812707363        2.3222831072
  C        17.4063820797        4.2784768389        3.0209152466
  C        16.3900982731        4.0002323994        3.9478701852
  C        15.7424954418        5.0402851749        4.6113416070
  C        16.0950844553        6.3839378865        4.3722148132
  C        17.0851334850        6.6533745858        3.4091190732
  C        17.7341124678        5.6159608109        2.7440630154
  C        15.4706955009        7.4916093351        5.1352576873
  C        15.4855578352        7.4906491078        6.5569703385
  C        16.1869766903        6.4969311966        7.3101285241
  C        42.9459948385       31.8597267305        2.0780620781
  C        43.6464864893       30.7719953435        2.8220487139
  C        44.5915981294       31.0933804477        3.8084759728
  C        45.1973830373       30.0878536079        4.5561399535
  C        44.8714268499       28.7347450655        4.3409042270
  C        43.9461211050       28.4203585610        3.3272281957
  C        43.3372216409       29.4254777212        2.5792194588
  C        45.4889323278       27.6553946072        5.1440893818
  C        45.4927366773       27.6807904895        6.5657931218
  C        44.8055322517       28.6887557145        7.3124265213
  C        14.8565318437        8.5630885415        7.2693502181
  C        14.8757413058        8.5635637462        4.4566791324
  C        42.9465246093       31.9618821863       13.8039496750
  C        43.6919300490       30.8856566018       13.0905035813
  C        44.6560422504       31.1915804674       12.1177629789
  C        45.2776307324       30.1719999727       11.4000472689
  C        44.9543754238       28.8216517484       11.6381363294
  C        44.0215070836       28.5239779416       12.6494866509
  C        43.3932108802       29.5407426084       13.3616545329
  C        45.5633327598       27.7241994464       10.8528804912
  C        45.5332284455       27.7172589451        9.4315822462
  C        44.8267819255       28.7073944458        8.6786147354
  C        35.1350177223       26.6362082308        8.7360118170
  C        35.1329550050       26.6048333462       11.5457633637
  C        18.1487492320        3.2472463214       13.7013777178
  C        17.4303323951        4.3440103785       12.9920631359
  C        16.4146309717        4.0527963308       12.0689919494
  C        15.7663585550        5.0834622499       11.3936600755
  C        16.1215171683        6.4286445738       11.6159682792
  C        17.1135197400        6.7119806901       12.5725877376
  C        17.7611753551        5.6830365497       13.2523221213
  C        15.4909063173        7.5243010926       10.8435610445
  C        15.4964850021        7.5074748901        9.4224324658
  C        16.1931682922        6.5057174423        8.6757331501
  H        10.6723023896       12.4649214524       11.9003634627
  H        11.6947587416       10.5501681461       10.6585082152
  H        15.3927599962       11.1703662091       12.7656258842
  H        14.3522904347       13.0730099375       14.0106992373
  H        13.3763895648       11.6312782538        9.1962890586
  H        50.3229402056       22.7478775158       11.9811399794
  H        49.3199247455       24.6224250467       10.6752227574
  H        45.6432830333       24.1625965853       12.8598647296
  H        46.6641892669       22.2914218024       14.1680653534
  H        47.6301947773       23.5759951829        9.2412209639
  H        14.8731489048        8.5888611963       12.6034999090
  H        50.2869770461       22.7018576254        4.0661426451
  H        49.2692126912       24.5747519376        5.3662321576
  H        45.6114462555       24.1106692682        3.1500740947
  H        46.6535350705       22.2552345631        1.8356505561
  H        47.6080782962       23.5518884375        6.8020916553
  H        40.6702194351       17.1512078418        3.4322745757
  H        48.6873479083       14.0951829855       15.7949848304
  H        10.6813424672       12.4658568276        4.0976123528
  H        11.6899267276       10.5239852051        5.3012434921
  H        15.3949043119       11.1610883219        3.2124818433
  H        14.3662860819       13.0893368179        1.9973609244
  H        13.3761860791       11.6223477465        6.7582899165
  H        47.9303781828       14.2187389725        1.7161076494
  H        47.7802498664       14.3749168713       14.4905340083
  H        49.0857317456       18.5532297893        2.8729371344
  H        10.4167620117       14.1342845143        0.0038376562
  H        24.4819416786        3.0336717806       11.9040899910
  H        25.6195132107        4.8926503406       10.6775032293
  H        23.2500629959        7.7582253751       12.8388772381
  H        22.1308554914        5.8898527789       14.0676095592
  H        23.8153809012        5.7947181354        9.2507290247
  H        36.3729384931       32.1861309591       11.9682736220
  H        35.2520856170       30.3571923195       10.6890315660
  H        37.5297775205       27.4405995582       12.8819104109
  H        38.6299281596       29.2824119450       14.1702554015
  H        37.0344195251       29.4502913462        9.2725383995
  H        25.7376935162        8.6192132644       12.6362290145
  H        36.4635366104       32.2543522253        4.1187405581
  H        35.3422208591       30.4443155562        5.4179318666
  H        37.5025792969       27.4931072990        3.1524226743
  H        38.6002048209       29.3156088763        1.8421674294
  H        37.0427498893       29.4763583633        6.8337453975
  H        46.1103019888       26.5881144160        3.3908020508
  H        44.6683977830       35.1163808829       15.8089055005
  H        24.4405471752        3.0383693729        4.0876985608
  H        25.5773636134        4.8771491297        5.3346274897
  H        23.1793118375        7.7679050341        3.2401844546
  H        22.0540097373        5.9175200010        1.9927026566
  H        23.8003474990        5.7920539132        6.8126127517
  H        44.9540972781       34.3905734829        1.7003849098
  H        44.9018444239       34.2068922183       14.4856205209
  H        40.6666568192       33.2099858131        2.8585958982
  H        23.1504102911        1.9587919666        0.0095864904
  H        25.8341003056       19.6245549329       11.8815197905
  H        23.6633517409       19.6676808132       10.6505324954
  H        22.3444114431       16.2293670847       12.8729926170
  H        24.5180085300       16.2038492178       14.1030176471
  H        23.7235415219       17.6270485471        9.2424880784
  H        35.1328149326       15.4476174458       11.9934596848
  H        37.2542108338       15.4016275375       10.6726598229
  H        38.6808210473       18.8113550289       12.8716206649
  H        36.5509703599       18.8460721596       14.1849004443
  H        37.2229150407       17.3908722785        9.2344492828
  H        20.3618699904       17.9792244680       12.6657861249
  H        35.2211402905       15.4546974652        4.0560548986
  H        37.3566637714       15.4056803688        5.3558242399
  H        38.7348779023       18.8622318980        3.1990301194
  H        36.5973710862       18.8882002844        1.8945727447
  H        37.2482638584       17.4049569941        6.7898298346
  H        35.1049840206       26.7140745546        3.4058254689
  H        28.5094227434       21.0826518188       15.9861412378
  H        25.7782191672       19.5794363919        4.2254836279
  H        23.5834412815       19.6457499345        5.4140186072
  H        22.2921444925       16.1814839855        3.2154652426
  H        24.4843554665       16.1437567541        2.0111488149
  H        23.7016516117       17.6059100833        6.8042927678
  H        28.9619199064       21.7233304784        1.7975654935
  H        29.1538899215       21.7498053887       14.6255049913
  H        32.1071118624       18.5255458911        3.0007282924
  H        27.3931527179       19.0668944634        0.0962990280
  H        14.8503133915       19.6410085945        4.1539481277
  H        17.0121673613       19.6809904606        5.3975202035
  H        18.3033583471       16.1836542499        3.2532196753
  H        16.1375225974       16.1586624419        2.0094484390
  H        16.9220088586       17.6835926413        6.8567163437
  H        46.0956980443       15.4580930630        4.0870835624
  H        43.9751477667       15.4198128111        5.4045012090
  H        42.5733929737       18.8537279829        3.2248896399
  H        44.6940447092       18.8661903478        1.8977716498
  H        44.0311065266       17.3638938762        6.8638443449
  H        20.2917034893       17.9144145578        3.4288568969
  H        46.0345839159       15.3847145113       12.0330101788
  H        43.9002814766       15.3221186498       10.7429956167
  H        42.5079807258       18.7775269081       12.8931977089
  H        44.6498518230       18.8272423047       14.1821658821
  H        44.0055686212       17.3250088094        9.3037274888
  H        46.2003229048       26.6832156484       12.6183343773
  H        52.7416106481       21.0628375219        0.1998794831
  H        14.8810896004       19.6709804935       11.8870635367
  H        17.0823238123       19.7416502509       10.7086413248
  H        18.3393957775       16.2331554522       12.8542443100
  H        16.1401744290       16.1855611652       14.0419341833
  H        16.9439417668       17.7021343761        9.2937000180
  H        52.3237978944       21.6737225179       14.2886558588
  H        52.0141615250       21.7027648962        1.5008671926
  H        49.0682509182       18.6076100454       13.1985730598
  H        13.2483340230       19.0155434102       15.9724829038
  H        29.9307685157       12.5098848241        4.2699203252
  H        28.8720403402       10.5771263998        5.4472975509
  H        25.2785914784       11.1534976168        3.1551046191
  H        26.3604758125       13.0677588236        1.9653646690
  H        27.1417539510       11.6925919504        6.7872604908
  H        30.9707242642       22.7788300907        4.0535524268
  H        31.9829119570       24.6554328413        5.3547833032
  H        35.6453037696       24.1993105111        3.1449298205
  H        34.6131897453       22.3285471974        1.8393116937
  H        33.6736658970       23.5920067135        6.7618991537
  H        25.7282994058        8.5877559454        3.4012665073
  H        30.9418467556       22.7394698914       11.9554304305
  H        31.9743571975       24.5881085153       10.6408607463
  H        35.6296389518       24.1109507151       12.8582992970
  H        34.5796017923       22.2589455589       14.1728540123
  H        33.6665794486       23.5646421054        9.2062074091
  H        40.5761393573       17.0630644445       12.6599427296
  H        32.5143145509       14.1489353986        0.2651975122
  H        29.8589636936       12.5953260782       11.8236441093
  H        28.8353548518       10.6856882491       10.5948662381
  H        25.2233061740       11.1520328123       12.8846316381
  H        26.2715367967       13.0480964617       14.1300980332
  H        27.1298926357       11.7110401380        9.2212137525
  H        33.2900272836       14.1921312924       14.4236070045
  H        33.4107705858       14.4208439958        1.6025681335
  H        32.1449833651       18.5912703241       13.2121761824
  H        30.2239476926       14.1936501046        0.0666324089
  H        16.1175454484        2.9637882549        4.1338516787
  H        14.9526564529        4.8210484267        5.3266115167
  H        17.3683314263        7.6861628641        3.2166507758
  H        18.5167708768        5.8186329309        2.0168843965
  H        16.7536794485        5.7397010176        6.7766283256
  H        44.8275491140       32.1405078131        3.9828847621
  H        45.9370020042       30.3417165280        5.3122930750
  H        43.6840155618       27.3782153588        3.1566686141
  H        42.6010573188       29.1901805910        1.8141072901
  H        44.2303205497       29.4366200843        6.7741019754
  H        14.8525189020        8.5471363052        3.3684441398
  H        44.8992158824       32.2342930304       11.9259877315
  H        46.0242329094       30.4133116961       10.6465323647
  H        43.7652128700       27.4841905102       12.8416233764
  H        42.6472824157       29.3180224400       14.1206835925
  H        44.2683935889       29.4703640484        9.2132068918
  H        35.0935542807       26.6159556952       12.6333301882
  H        36.6052329652       35.1343600999        0.1856299914
  H        16.1431487675        3.0132708141       11.8996313776
  H        14.9736815901        4.8567489777       10.6839303352
  H        17.3976459704        7.7473727092       12.7489437687
  H        18.5446232145        5.8935122368       13.9764641456
  H        16.7647236683        5.7555626263        9.2141596775
  H        36.2786630859       34.4829486906       14.2678010040
  H        36.3811909107       34.2092346590        1.5044351783
  H        40.5813294267       33.2037792962       13.1481074551
  H        17.4709881941        1.9482747036       15.9690288412
  H        28.8180815187       18.8783243160        4.3968095182
  H        29.7489141195       19.9945372137       11.7198670610
  H        32.1593041696       16.3228151364       10.7270561900
  H        31.4001388719       15.4791905540        4.4944020205
  H        28.3520269567       17.3516986789        6.9257351502
  H        31.8925361805       13.6246848280        8.2711317604
  H        31.5681335110       20.0835643721        9.4361005703
  H        33.4492302971       16.8065542619        9.8740400177
  H        29.0203577778       16.6978108132        9.3338206154
  H        18.8539798893        0.8692208389        4.3404645120
  H        40.5279679830       35.2290074403       11.9467336992
  H        42.3258119578       34.4206640908       11.5844344610
  H        22.0875139056        0.6922316420        4.3569032069
  H        11.5968504592       18.7127603964        4.3877747120
  H        52.2653340807       18.4314733635       11.6721684592
  H        49.2549169773       16.4768829378       11.5792695409
  H        10.1504323053       15.7983308446        4.2977307140
  H        50.8506524582       17.6926939003       11.9489156363
  H        10.0463704168       17.3947019094        4.0569131567
  H        20.2153157697        0.0023920631        4.0470045503
  H        39.1839009819       36.1245689414       11.6812450789
  H        32.3821096823       18.3558822826        6.7584044993
 Ni        30.6456006007       18.0412578100       10.8255094239
 Ni        31.2376342887       16.2352722317        8.0747026687
 Ni        29.9694767469       18.9174805764        7.8299181863
 Ni        30.2683558834       17.1896167708        5.4135075928
  O        10.6500194334       14.3651907904       13.4807640527
  O        12.6131947402       14.6575003599       14.5788227588
  O        49.1479599043       16.8457638006       15.9844622379
  O        50.3503593945       20.9356374189       13.6427709447
  O        48.3486034813       20.5933029822       14.6607209494
  O        11.0519863251       17.0536800132       14.4957283237
  O        50.3210045673       20.8816012671        2.4120040870
  O        48.3467430211       20.5867418930        1.3322032307