     575
 i =       99, E =     -4794.9307083539
  C        11.8588546342       14.0536535845       13.7364264312
  C        12.4564222786       12.8908184549       13.0179745227
  C        11.7045281020       12.1713972881       12.0768625938
  C        12.2809238083       11.1091849094       11.3845377875
  C        13.6217077954       10.7399089214       11.6118211445
  C        14.3551785689       11.4440863817       12.5845968490
  C        13.7822622623       12.5090918074       13.2760466004
  C        14.2611654137        9.6491343863       10.8385018022
  C        14.2564423566        9.6569799621        9.4168081229
  C        13.7433145201       10.7591389451        8.6629297181
  C        49.1269845276       21.2331627791       13.8745199160
  C        48.5502629305       22.4012488128       13.1475116145
  C        49.3003150750       23.0685547433       12.1665375741
  C        48.7334195630       24.1077397704       11.4333489893
  C        47.4029053939       24.5094220924       11.6619998363
  C        46.6719551953       23.8606036200       12.6755468629
  C        47.2343752954       22.8156656011       13.4048783281
  C        46.7725924142       25.5870777892       10.8647157109
  C        46.7614664763       25.5574205603        9.4429544197
  C        47.2614931612       24.4423680132        8.6994668875
  C        14.8602840280        8.5705719736        8.7035734076
  C        14.8918829366        8.5971912948       11.5151881437
  C        49.1133225847       21.2033691733        2.1504372781
  C        48.5278988048       22.3647775233        2.8776543744
  C        49.2671625849       23.0254953089        3.8705231524
  C        48.6908740264       24.0600830679        4.6019965067
  C        47.3604657398       24.4568569076        4.3637958118
  C        46.6400241577       23.8119899935        3.3402685144
  C        47.2135559621       22.7760693540        2.6084788968
  C        46.7220015254       25.5318376186        5.1548127899
  C        46.7336473414       25.5281909942        6.5765215530
  C        47.2491891302       24.4290352517        7.3329159204
  C        40.6319340718       17.1440249131        7.3299264629
  C        40.6592353400       17.1814190102        4.5212961612
  C        11.8831223213       14.0866557215        2.2906498854
  C        12.4726029212       12.9110344834        2.9951111027
  C        11.7148526677       12.1772463247        3.9205613767
  C        12.2815302586       11.0948156852        4.5889516883
  C        13.6206130631       10.7217295006        4.3576984833
  C        14.3589054539       11.4379976679        3.3976951849
  C        13.7934104094       12.5191543118        2.7250256383
  C        14.2541294332        9.6248423576        5.1280138348
  C        14.2527244620        9.6446861949        6.5498412833
  C        13.7428339012       10.7536380888        7.2968875829
  C        22.5111371398        3.2453107644       13.7462898353
  C        23.2230000500        4.3511705726       13.0433494911
  C        24.2189245608        4.0717282039       12.0957754603
  C        24.8440995374        5.1113041554       11.4116995215
  C        24.4891571793        6.4532893500       11.6543036791
  C        23.5208198361        6.7242774334       12.6383810820
  C        22.8912846405        5.6864934919       13.3210834848
  C        25.0946094954        7.5602183683       10.8779836788
  C        25.0719524041        7.5517924675        9.4560435421
  C        24.3743370898        6.5505234812        8.7082474313
  C        38.3029704507       31.9313548001       13.8456170721
  C        37.5735413589       30.8416611091       13.1382643365
  C        36.6115138811       31.1443616367       12.1629063780
  C        35.9959483788       30.1227662202       11.4457188353
  C        36.3290875056       28.7750357961       11.6830108647
  C        37.2609038606       28.4796109834       12.6954225540
  C        37.8802094533       29.4998727035       13.4116620302
  C        35.7295430562       27.6831476843       10.8859200219
  C        35.7571328330       27.7018368798        9.4648871776
  C        36.4608175918       28.7060862164        8.7280169652
  C        25.6958219924        8.6219304297        8.7367392533
  C        25.6878808728        8.6374272589       11.5489593385
  C        38.3287250818       31.9634186914        2.1615763311
  C        37.6045892900       30.8935297756        2.9054154029
  C        36.6792714316       31.2087831939        3.9122361529
  C        36.0646755603       30.1948957012        4.6442025916
  C        36.3607616022       28.8406393858        4.3917832792
  C        37.2640572014       28.5352996217        3.3553046649
  C        37.8813702944       29.5458445289        2.6250719432
  C        35.7477672923       27.7450278583        5.1767832570
  C        35.7664693650       27.7337011257        6.5986081582
  C        36.4658479801       28.7208918748        7.3614751340
  C        46.1355650859       26.6207948057        7.2866515911
  C        46.0880722804       26.5802096044        4.4787513459
  C        22.4624977359        3.2559675087        2.2613607095
  C        23.1605053374        4.3646941889        2.9807833726
  C        24.1679656777        4.0784032545        3.9157785920
  C        24.7994761843        5.1084525686        4.6087656130
  C        24.4433262971        6.4541748138        4.3895886128
  C        23.4591971132        6.7338934999        3.4226860554
  C        22.8233638100        5.7041026023        2.7298590820
  C        25.0746702239        7.5519585420        5.1641603340
  C        25.0628805930        7.5466062489        6.5868135011
  C        24.3680574151        6.5493043127        7.3415657461
  C        26.6232845141       17.8619282607       13.7832407394
  C        25.3151879988       17.9029381565       13.0588872801
  C        25.0654387567       18.8831563022       12.0853781885
  C        23.8522955893       18.9017904855       11.3994193286
  C        22.8525759801       17.9428204642       11.6627416116
  C        23.0998446208       16.9852506826       12.6647969952
  C        24.3143269839       16.9615914108       13.3494392426
  C        21.5792999603       17.9251632342       10.8980254066
  C        21.5789742164       17.8941147934        9.4754150478
  C        22.7835040570       17.7582055494        8.7158273242
  C        34.4211810605       17.2230277866       13.9072440217
  C        35.7109311919       17.1591455884       13.1592309124
  C        35.9122351963       16.1905108907       12.1629074352
  C        37.0940532219       16.1732071809       11.4260925306
  C        38.1086924330       17.1201599819       11.6695973123
  C        37.9098653499       18.0671030253       12.6921145384
  C        36.7250472545       18.0918788011       13.4235543322
  C        39.3668266429       17.1250205354       10.8889510769
  C        39.3673496209       17.1515900391        9.4677616339
  C        38.1640826386       17.2882938061        8.7063708239
  C        20.3327706964       17.9144385863        8.7659422948
  C        20.3537888156       17.9342218141       11.5793037421
  C        34.4809405101       17.2491742207        2.1825369644
  C        35.7846426524       17.1805600961        2.9037210999
  C        35.9937769699       16.2058996320        3.8904968715
  C        37.1789634919       16.1907954501        4.6196568497
  C        38.1819160277       17.1504041682        4.3821263698
  C        37.9790081723       18.1000446265        3.3636018825
  C        36.7914987298       18.1200843820        2.6368682274
  C        39.4260203731       17.1706924724        5.1813331310
  C        39.3977777659       17.1777161705        6.6023050801
  C        38.1779043337       17.2996012104        7.3398579075
  C        35.1379386924       26.6532361421        7.3023342699
  C        35.1453189297       26.6815984198        4.4937519442
  C        26.5893244295       17.7933808473        2.3681864829
  C        25.2727864052       17.8453013277        3.0663105827
  C        25.0178311482       18.8341802155        4.0281508536
  C        23.7928291963       18.8669191126        4.6879903232
  C        22.7971197457       17.9073791023        4.4155437843
  C        23.0479443347       16.9439938537        3.4213987803
  C        24.2710543971       16.9122805561        2.7551963049
  C        21.5317091939       17.8879516513        5.1849470997
  C        21.5546440636       17.8720281263        6.6068041874
  C        22.7716319951       17.7461200230        7.3496792805
  C        14.0477661175       17.8283325495        2.2947840636
  C        15.3522109102       17.8834901027        3.0205423258
  C        15.6100672088       18.8839511442        3.9709473535
  C        16.8191878935       18.9020775857        4.6640312399
  C        17.8056818220       17.9226052043        4.4296325850
  C        17.5525659221       16.9466952702        3.4469171204
  C        16.3430070347       16.9238586703        2.7553673911
  C        19.0749362096       17.9018916640        5.1991961253
  C        19.0732067616       17.8964029809        6.6219352544
  C        17.8659357888       17.8005825785        7.3830882998
  C        46.8072354342       17.2208669471        2.1655839213
  C        45.5206031611       17.1660468808        2.9165319732
  C        45.3148373176       16.1924601495        3.9059746624
  C        44.1358143465       16.1818798425        4.6463618752
  C        43.1339364974       17.1451171884        4.4181480598
  C        43.3376318626       18.0992930852        3.4031635189
  C        44.5171698382       18.1137576118        2.6640233770
  C        41.8804112657       17.1611095252        5.2047683583
  C        41.8813612298       17.1554618363        6.6263921534
  C        43.0877601003       17.2420977177        7.3899098480
  C        20.3197802685       17.9025509960        7.3309462054
  C        20.2996631575       17.8824045707        4.5176469528
  C        46.7830793047       17.2293933330       13.8864122397
  C        45.4760723494       17.1190925468       13.1768544210
  C        45.2570173805       16.1223349562       12.2138833497
  C        44.0670011489       16.0943149828       11.4905207280
  C        43.0658161884       17.0596156276       11.7134170310
  C        43.2739978701       18.0238134057       12.7173522336
  C        44.4654095874       18.0586115665       13.4352564142
  C        41.8211548973       17.0871786992       10.9130694204
  C        41.8512293967       17.1153528198        9.4921668835
  C        43.0735832287       17.2207902332        8.7562258724
  C        46.1533443974       26.6372392164        8.7212028440
  C        46.1626364933       26.6561975552       11.5308336174
  C        14.0461025137       17.8319011381       13.7037280150
  C        15.3673446163       17.9060267620       13.0143331245
  C        15.6409383743       18.9189678988       12.0830171023
  C        16.8703995499       18.9551032416       11.4289500104
  C        17.8542036528       17.9774577662       11.6802257788
  C        17.5876171400       16.9941088062       12.6503044726
  C        16.3602318448       16.9572997716       13.3078061008
  C        19.1216638926       17.9494806116       10.9116479815
  C        19.0974920439       17.9199057514        9.4901975831
  C        17.8778262342       17.8110944136        8.7491661322
  C        28.8102553565       14.0871518194        2.3651676904
  C        28.2028263206       12.9154842897        3.0614022783
  C        28.9264673013       12.1838417184        4.0146289274
  C        28.3285246418       11.1116388561        4.6732577455
  C        26.9941080928       10.7464561971        4.4015216464
  C        26.2925926926       11.4598716828        3.4131117874
  C        26.8872279942       12.5329094184        2.7543728428
  C        26.3256058822        9.6659954663        5.1632836887
  C        26.3071110103        9.6935424455        6.5841056433
  C        26.8045832491       10.8088462163        7.3299427172
  C        32.1571153127       21.2696374071        2.1525705822
  C        32.7409022198       22.4375480742        2.8752076214
  C        31.9992071182       23.0942186635        3.8693739545
  C        32.5703276291       24.1335487957        4.5983049838
  C        33.8965524990       24.5404958592        4.3538946025
  C        34.6184844424       23.9010095139        3.3289463165
  C        34.0505417378       22.8581302451        2.6013141436
  C        34.5318703724       25.6111438885        5.1535225726
  C        34.5389694082       25.5738401815        6.5745056597
  C        34.0388805058       24.4540458080        7.3113730225
  C        25.6962046871        8.6156122394        7.3021051501
  C        25.6919978093        8.6136352035        4.4891030545
  C        32.1069655315       21.2340214427       13.8852140241
  C        32.7019034663       22.3820696565       13.1398809462
  C        31.9676577728       23.0448018298       12.1441011639
  C        32.5505568288       24.0711620048       11.4049699020
  C        33.8810906309       24.4660343863       11.6453618302
  C        34.5985281414       23.8171766795       12.6684790721
  C        34.0206772681       22.7840453454       13.4017422164
  C        34.5203645725       25.5475873073       10.8620305282
  C        34.5310106919       25.5422271436        9.4404105788
  C        34.0336512524       24.4392637376        8.6776946514
  C        40.6165409914       17.1266890149        8.7639744616
  C        40.5876116143       17.1094160332       11.5735546977
  C        28.7178154961       14.0970176159       13.7796416186
  C        28.1122104656       12.9470075760       13.0459198133
  C        28.8508047219       12.2416010915       12.0833081938
  C        28.2721269541       11.1786773244       11.3939602199
  C        26.9388444210       10.7942834999       11.6416497305
  C        26.2180060456       11.4861645040       12.6331033168
  C        26.7950830095       12.5490306725       13.3251197591
  C        26.2998667339        9.7001393420       10.8716648183
  C        26.2950443866        9.7114941555        9.4498971818
  C        26.7962721004       10.8186783633        8.6955426860
  C        18.1353280693        3.1810669707        2.3222917010
  C        17.4060269588        4.2782661714        3.0207967722
  C        16.3903957470        3.9999175150        3.9484387998
  C        15.7426982338        5.0399132070        4.6119178695
  C        16.0945263132        6.3836649094        4.3721769594
  C        17.0837493700        6.6531567270        3.4082194720
  C        17.7328141404        5.6158155030        2.7431556404
  C        15.4702810615        7.4913667407        5.1352591566
  C        15.4854301573        7.4905341652        6.5569739582
  C        16.1868310603        6.4968197022        7.3101625652
  C        42.9460049123       31.8595246272        2.0780416474
  C        43.6463898504       30.7719081856        2.8219771874
  C        44.5918039607       31.0932299367        3.8081696126
  C        45.1974875225       30.0876743531        4.5558344556
  C        44.8712059979       28.7345913579        4.3408357652
  C        43.9455409668       28.4202661785        3.3274668956
  C        43.3367304175       29.4254048119        2.5794303484
  C        45.4887618312       27.6552825324        5.1440227700
  C        45.4928217376       27.6808873872        6.5657147155
  C        44.8056166369       28.6888573620        7.3123357701
  C        14.8565696896        8.5630736069        7.2693567817
  C        14.8752575742        8.5633081004        4.4566869996
  C        42.9465171597       31.9615839424       13.8039327701
  C        43.6918144917       30.8855073749       13.0905148512
  C        44.6560870081       31.1914305775       12.1178952028
  C        45.2775854938       30.1718548676       11.4001432631
  C        44.9541579562       28.8214947631       11.6380602560
  C        44.0210724484       28.5238346056       12.6492207151
  C        43.3928352969       29.5405804818       13.3614411561
  C        45.5631579119       27.7241041258       10.8527868586
  C        45.5333202787       27.7173678537        9.4314912281
  C        44.8268704642       28.7074966550        8.6785217882
  C        35.1337252542       26.6367815372        8.7366521430
  C        35.1302783980       26.6052170153       11.5464646856
  C        18.1485132221        3.2471090970       13.7015005244
  C        17.4298851517        4.3438808104       12.9923544073
  C        16.4147931030        4.0525905293       12.0686401351
  C        15.7664816218        5.0832058375       11.3932568665
  C        16.1210064237        6.4284730972       11.6160966369
  C        17.1122047616        6.7118774714       12.5735537927
  C        17.7598631052        5.6829793981       13.2533366150
  C        15.4905622238        7.5241520538       10.8436146034
  C        15.4963882107        7.5074162593        9.4224803507
  C        16.1930265669        6.5056327653        8.6757698067
  H        10.6722234473       12.4651553818       11.9002682421
  H        11.6945152462       10.5502978902       10.6584070069
  H        15.3924579439       11.1700559201       12.7657632282
  H        14.3519863965       13.0729020639       14.0108344937
  H        13.3763672735       11.6312685108        9.1962824471
  H        50.3230203502       22.7484972463       11.9817897073
  H        49.3199665748       24.6230028968       10.6758154394
  H        45.6425075310       24.1614835382       12.8587860619
  H        46.6634133838       22.2904446595       14.1670204276
  H        47.6302372959       23.5760884368        9.2411627786
  H        14.8723089699        8.5885739124       12.6034993837
  H        50.2872317531       22.7026624177        4.0653715771
  H        49.2693490786       24.5755534904        5.3654313729
  H        45.6106430437       24.1093103362        3.1511978148
  H        46.6527822365       22.2539579548        1.8368462311
  H        47.6081405350       23.5519889491        6.8020113449
  H        40.6690856137       17.1496245213        3.4335283531
  H        48.6871454841       14.0951213768       15.7949003626
  H        10.6811580608       12.4658323691        4.0974599244
  H        11.6896163848       10.5239370331        5.3011541587
  H        15.3946403564       11.1608132842        3.2124296329
  H        14.3660219346       13.0891773175        1.9972165813
  H        13.3761263112       11.6222825460        6.7582199345
  H        47.9302543276       14.2185822236        1.7160068428
  H        47.7801835215       14.3744517114       14.4902097973
  H        49.0849405429       18.5529000032        2.8727741418
  H        10.4162683637       14.1343407177        0.0038809311
  H        24.4812957387        3.0333206804       11.9057965196
  H        25.6169444481        4.8933581783       10.6777699164
  H        23.2384401501        7.7569596838       12.8324719718
  H        22.1218858700        5.8871904202       14.0626558472
  H        23.8125803342        5.7932035244        9.2472510492
  H        36.3717378157       32.1871709130       11.9691966886
  H        35.2493037729       30.3589656099       10.6907607189
  H        37.5243169758       27.4410215399       12.8844544113
  H        38.6259377698       29.2818540783       14.1723948315
  H        37.0283283135       29.4539275798        9.2741647006
  H        25.7197155558        8.6218122281       12.6369178828
  H        36.4628272376       32.2545382749        4.1183509246
  H        35.3417420494       30.4446384742        5.4176532144
  H        37.5041744091       27.4933131702        3.1544572178
  H        38.6013683046       29.3153854672        1.8435956831
  H        37.0385056641       29.4795295827        6.8357363132
  H        46.1096112935       26.5876449192        3.3907169961
  H        44.6682019618       35.1161386164       15.8088378298
  H        24.4465724153        3.0401085391        4.0811421232
  H        25.5838727287        4.8794907493        5.3270306681
  H        23.1727352043        7.7683993646        3.2445151571
  H        22.0477016255        5.9171600028        1.9978911213
  H        23.8009357836        5.7915254259        6.8087579710
  H        44.9536048848       34.3901748572        1.7001190297
  H        44.9015691867       34.2068066147       14.4854318498
  H        40.6662144844       33.2092681948        2.8583192905
  H        23.1506221019        1.9578756795        0.0096002933
  H        25.8361073886       19.6228134704       11.8799966066
  H        23.6649540226       19.6684681337       10.6505908059
  H        22.3405593682       16.2356071656       12.8782938634
  H        24.5142120996       16.2087347284       14.1083870538
  H        23.7235489157       17.6335102327        9.2453030974
  H        35.1303254150       15.4556702707       11.9829025194
  H        37.2504615863       15.4142222209       10.6624972966
  H        38.6852850255       18.8057273024       12.8846881953
  H        36.5557649840       18.8373594356       14.1971710807
  H        37.2243268236       17.4168119463        9.2354733226
  H        20.3598042423       17.9812858052       12.6669018086
  H        35.2065261910       15.4808993975        4.0833854663
  H        37.3413243071       15.4322608724        5.3822154727
  H        38.7476505535       18.8470887007        3.1765911648
  H        36.6112595797       18.8714941844        1.8717240007
  H        37.2489115231       17.4348421856        6.7931716515
  H        35.1083595561       26.7132883976        3.4065085600
  H        28.5082844572       21.0871377011       15.9853106074
  H        25.7915734571       19.5670744067        4.2449938279
  H        23.5945755971       19.6388610364        5.4283188431
  H        22.2878538630       16.1961720792        3.2047692674
  H        24.4801287335       16.1575457662        2.0009034624
  H        23.7029613558       17.6116222035        6.8077558626
  H        28.9603368530       21.7252942681        1.7984961939
  H        29.1491593217       21.7528174095       14.6212635945
  H        32.1201429626       18.5350389558        2.9939831597
  H        27.3934764279       19.0682334096        0.0976193019
  H        14.8525352269       19.6433979311        4.1513763771
  H        17.0146337856       19.6844977295        5.3942099800
  H        18.3032143236       16.1824639539        3.2559900233
  H        16.1371288838       16.1566628040        2.0127317929
  H        16.9231833523       17.6866865434        6.8558923426
  H        46.0956141772       15.4575290298        4.0872678858
  H        43.9752671693       15.4185231136        5.4044905356
  H        42.5716441278       18.8509089560        3.2239498908
  H        44.6918248542       18.8641040904        1.8965520421
  H        44.0315530465       17.3571420178        6.8644519391
  H        20.2942831210       17.9173475918        3.4296427280
  H        46.0357386140       15.3850469356       12.0322779958
  H        43.9014144342       15.3219370632       10.7425612189
  H        42.5060435518       18.7733134557       12.8970141453
  H        44.6476286773       18.8234999959       14.1861496204
  H        44.0064052890       17.3183061854        9.3039291358
  H        46.1996670209       26.6828166894       12.6182708591
  H        52.7414347662       21.0627722764        0.1998578987
  H        14.8802199247       19.6717202961       11.8882520161
  H        17.0815237902       19.7434500233       10.7096117580
  H        18.3387035697       16.2332462517       12.8524466422
  H        16.1393179352       16.1848707535       14.0404069531
  H        16.9439571766       17.7050295277        9.2929639413
  H        52.3233882289       21.6735851468       14.2888233284
  H        52.0137832226       21.7024494084        1.5008615531
  H        49.0674762771       18.6074704793       13.1989161637
  H        13.2480683503       19.0158674975       15.9725087731
  H        29.9548088013       12.4701540581        4.2251045894
  H        28.8913369712       10.5428431130        5.4103164648
  H        25.2613437141       11.1889353542        3.1962089074
  H        26.3424938542       13.1054106992        2.0076605106
  H        27.1661367802       11.6780141321        6.7887456979
  H        30.9803000549       22.7672580526        4.0660397521
  H        31.9907429026       24.6446088087        5.3640512296
  H        35.6450082466       24.2061348226        3.1364852164
  H        34.6127661820       22.3370565025        1.8299027549
  H        33.6827178415       23.5870603803        6.7626920956
  H        25.7245737892        8.5936198966        3.4011813814
  H        30.9411120127       22.7391346559       11.9559391920
  H        31.9741046723       24.5860121872       10.6394227570
  H        35.6284146323       24.1119066624       12.8591753733
  H        34.5791024965       22.2605245505       14.1743140900
  H        33.6724607644       23.5611009674        9.2052130749
  H        40.5764628829       17.0624731946       12.6608705388
  H        32.5184150323       14.1467740449        0.2677014206
  H        29.8820852092       12.5330237974       11.8972087677
  H        28.8526871230       10.6269658645       10.6577342152
  H        25.1865171434       11.2021046043       12.8313943243
  H        26.2353662821       13.0984121027       14.0784978344
  H        27.1504421202       11.6958962186        9.2287933536
  H        33.2898128630       14.1898669225       14.4214683505
  H        33.4119137143       14.4120937843        1.6090653530
  H        32.1559387149       18.5965420918       13.2194959413
  H        30.2277714957       14.1932394167        0.0668198954
  H        16.1183237281        2.9634306655        4.1349083096
  H        14.9532747289        4.8205410035        5.3276093990
  H        17.3660622644        7.6860406703        3.2149687032
  H        18.5146830055        5.8185136211        2.0151409504
  H        16.7533333453        5.7394184950        6.7766946805
  H        44.8280053080       32.1403122786        3.9824603485
  H        45.9372823894       30.3414156731        5.3118530832
  H        43.6830151758       27.3781789235        3.1572046377
  H        42.6002358107       29.1900545964        1.8146550255
  H        44.2302207762       29.4365883514        6.7740244635
  H        14.8516399812        8.5467074630        3.3684643286
  H        44.8994015913       32.2341213657       11.9262161614
  H        46.0242407516       30.4131093714       10.6466665886
  H        43.7644712954       27.4840739084       12.8410907042
  H        42.6466986618       29.3177404447       14.1202270629
  H        44.2682895914       29.4703419202        9.2130853621
  H        35.0904369508       26.6159460326       12.6340220389
  H        36.6049330107       35.1342607859        0.1856342409
  H        16.1437706543        3.0130157450       11.8988233906
  H        14.9742182454        4.8563563599       10.6831037064
  H        17.3955338854        7.7473715393       12.7505934687
  H        18.5425765462        5.8934885303       13.9782564902
  H        16.7643891066        5.7553239153        9.2141858729
  H        36.2780875701       34.4831782109       14.2678643296
  H        36.3801445841       34.2096189527        1.5047678026
  H        40.5806947622       33.2028779524       13.1485852843
  H        17.4706958711        1.9477544304       15.9690141678
  H        28.8559691083       18.9596582362        4.4210407423
  H        29.7638733728       19.9627146209       11.6680070109
  H        32.0419518017       16.2188441423       10.6690095937
  H        31.4014107354       15.5112829186        4.5194574893
  H        28.2207285780       17.4302955734        6.7419956543
  H        29.6983740712       14.9228532152        6.4707485479
  H        31.4772007376       19.9533318952        9.5484412819
  H        33.2923117504       16.7326950574        9.7630420713
  H        28.9306664108       16.5158860014        9.4079868572
  H        18.8533156265        0.8690745618        4.3403825767
  H        40.5277957710       35.2290031166       11.9468502893
  H        42.3243815372       34.4189376431       11.5853913071
  H        22.0879108784        0.6919145282        4.3569857274
  H        11.5969261932       18.7129882975        4.3876977060
  H        52.2652119210       18.4313378196       11.6723073609
  H        49.2549867881       16.4771356302       11.5794336926
  H        10.1503618507       15.7982060441        4.2978141387
  H        50.8504244860       17.6926257676       11.9490520677
  H        10.0462626176       17.3945271147        4.0569917373
  H        20.2144407584        0.0023272571        4.0471691803
  H        39.1835807128       36.1244318360       11.6811853406
 Ni        30.5654394009       17.9382766996       10.9048606680
 Ni        31.1156623097       16.3970971085        7.9940645901
 Ni        30.0123756031       18.8466179506        7.7472141514
 Ni        30.3086575897       17.3565987254        5.2516842336
  O        10.6499883839       14.3651653053       13.4807047903
  O        12.6132003049       14.6574991547       14.5788193665
  O        49.1479483278       16.8458716009       15.9844697292
  O        50.3503008193       20.9358268269       13.6428861259
  O        48.3485617152       20.5933445000       14.6607586389
  O        11.0517963872       17.0538010539       14.4956726287
  O        50.3210127011       20.8816310877        2.4119989290
  O        48.3467361463       20.5867693078        1.3322141141
  O        49.5438902155       18.2483980275        2.0732514568