     574
 i =      221, E =     -4778.8439255816
  C        11.8587974013       14.0534837356       13.7364484571
  C        12.4562788674       12.8905717904       13.0181573838
  C        11.7045102236       12.1714588973       12.0766905506
  C        12.2809070071       11.1092762729       11.3843321455
  C        13.6215660532       10.7396770532       11.6118972146
  C        14.3548422581       11.4434660930       12.5851191262
  C        13.7819321989       12.5084267190       13.2766283984
  C        14.2610880359        9.6490163522       10.8384952592
  C        14.2563100453        9.6568974567        9.4168011867
  C        13.7430819026       10.7590026518        8.6629118868
  C        49.1269361394       21.2332326542       13.8745468664
  C        48.5502109827       22.4012251578       13.1474809674
  C        49.3001998286       23.0684815785       12.1664196783
  C        48.7332547242       24.1076332501       11.4332370172
  C        47.4027557570       24.5093510989       11.6619472653
  C        46.6718799041       23.8605727935       12.6755752454
  C        47.2343330072       22.8156599758       13.4049060930
  C        46.7724719392       25.5870294092       10.8646924355
  C        46.7613294037       25.5573367114        9.4429368647
  C        47.2612488564       24.4422330343        8.6994473814
  C        14.8602896422        8.5705834397        8.7035393415
  C        14.8919176838        8.5971078417       11.5151487521
  C        49.1133315063       21.2034781410        2.1504843088
  C        48.5279796163       22.3648829704        2.8776525926
  C        49.2671416972       23.0254931963        3.8706757155
  C        48.6908015694       24.0600490008        4.6021396177
  C        47.3604444887       24.4569303106        4.3637868936
  C        46.6401214659       23.8121639843        3.3401103996
  C        47.2136863817       22.7762628933        2.6083349331
  C        46.7219463346       25.5318649351        5.1548142245
  C        46.7335506549       25.5281521262        6.5765170122
  C        47.2489677129       24.4289267158        7.3328960735
  C        40.6361953917       17.1639112797        7.3271267965
  C        40.6560413856       17.1908721934        4.5182615115
  C        11.8830192128       14.0865225666        2.2906265666
  C        12.4723535314       12.9107852747        2.9949004410
  C        11.7147956549       12.1774663958        3.9208857631
  C        12.2814044660       11.0950252356        4.5892983375
  C        13.6202712841       10.7214136064        4.3575433253
  C        14.3583073775       11.4371051090        3.3968842768
  C        13.7928520983       12.5182584410        2.7241934727
  C        14.2538671566        9.6246549730        5.1279426077
  C        14.2525226138        9.6445759986        6.5497799763
  C        13.7425666160       10.7534792052        7.2968669916
  C        22.5130917375        3.2441666895       13.7484622700
  C        23.2310225591        4.3478660559       13.0500493382
  C        24.2274032256        4.0645767474       12.1041043393
  C        24.8582401428        5.1019276946       11.4223535293
  C        24.5085656366        6.4448260574       11.6665009524
  C        23.5405632272        6.7196173612       12.6496564583
  C        22.9049118108        5.6840334606       13.3297662356
  C        25.1171005739        7.5495187806       10.8903944555
  C        25.0848347100        7.5441313249        9.4690068946
  C        24.3780038106        6.5473964815        8.7238577024
  C        38.3032752621       31.9300096674       13.8439216044
  C        37.5751260015       30.8399333207       13.1338990990
  C        36.6179172321       31.1425751492       12.1535914381
  C        36.0030007023       30.1212140773       11.4348625103
  C        36.3304310878       28.7725877162       11.6757621788
  C        37.2578364578       28.4774265732       12.6925665608
  C        37.8771934038       29.4974744471       13.4096905788
  C        35.7301214037       27.6797403796       10.8788612917
  C        35.7645347931       27.6927853635        9.4576746476
  C        36.4722705513       28.6938584816        8.7203327576
  C        25.7073365692        8.6139360588        8.7485426995
  C        25.7197608877        8.6215778536       11.5605549914
  C        38.3292913264       31.9620631084        2.1613125034
  C        37.6095584527       30.8873197809        2.9030339710
  C        36.6815915989       31.1932209688        3.9101214319
  C        36.0746595786       30.1725917236        4.6394300450
  C        36.3815436962       28.8209009278        4.3848745756
  C        37.2867319699       28.5249394763        3.3474400323
  C        37.8958241075       29.5420160289        2.6195805316
  C        35.7769586177       27.7200039136        5.1690598142
  C        35.7885659900       27.7133793786        6.5909951380
  C        36.4831690251       28.7041257160        7.3538045500
  C        46.1355126274       26.6207764533        7.2866473274
  C        46.0880628088       26.5802654599        4.4787562176
  C        22.4604514459        3.2560814755        2.2632399245
  C        23.1532642093        4.3649501298        2.9869606998
  C        24.1547186213        4.0792583445        3.9285994620
  C        24.7816991303        5.1095744599        4.6251656454
  C        24.4275549860        6.4554738061        4.4028365258
  C        23.4490706515        6.7344030298        3.4298137913
  C        22.8173763260        5.7043144989        2.7337684873
  C        25.0587193708        7.5534560688        5.1769960997
  C        25.0549757029        7.5458217473        6.5999003063
  C        24.3620756545        6.5491157316        7.3572354414
  C        26.6207361334       17.8583441518       13.7760449077
  C        25.3116771808       17.9063533541       13.0544140836
  C        25.0592105079       18.8940575784       12.0894259189
  C        23.8459362735       18.9148977474       11.4038898643
  C        22.8494774008       17.9508896087       11.6602582192
  C        23.0989271998       16.9862206852       12.6546614288
  C        24.3137603602       16.9601883867       13.3382820433
  C        21.5767825959       17.9344368934       10.8952557947
  C        21.5765648311       17.9058565818        9.4727520217
  C        22.7818092863       17.7769331024        8.7124827980
  C        34.4424926629       17.1940959617       13.9162049032
  C        35.7343392898       17.1508962917       13.1696879063
  C        35.9404507463       16.1899361890       12.1677421924
  C        37.1199227032       16.1859801421       11.4285738484
  C        38.1259108705       17.1404629493       11.6742548244
  C        37.9229147697       18.0815979703       12.7011847290
  C        36.7397184497       18.0922279015       13.4359052962
  C        39.3805004885       17.1546238742       10.8895191296
  C        39.3773431763       17.1770475233        9.4683336558
  C        38.1710391447       17.3039133658        8.7099843245
  C        20.3300816358       17.9225662864        8.7639057427
  C        20.3515532561       17.9407836872       11.5769085733
  C        34.4779060950       17.2491777290        2.1819009787
  C        35.7805484908       17.1830223703        2.9080712477
  C        35.9984020564       16.2012419300        3.8858956755
  C        37.1833596179       16.1901062476        4.6162658268
  C        38.1784940943       17.1596986226        4.3865171997
  C        37.9670074943       18.1171282042        3.3773311427
  C        36.7794126345       18.1336268861        2.6506598749
  C        39.4249615057       17.1812513270        5.1821400376
  C        39.4002233049       17.1913664118        6.6027516745
  C        38.1818372452       17.3088304559        7.3434296098
  C        35.1579288456       26.6346747921        7.2953678802
  C        35.1872739569       26.6487772245        4.4862765507
  C        26.5710437344       17.8245455527        2.3295446077
  C        25.2556580434       17.8667687904        3.0372791246
  C        24.9852572017       18.8759371218        3.9738184979
  C        23.7682695025       18.8971297728        4.6497274887
  C        22.7912511789       17.9100890993        4.4103416843
  C        23.0553025942       16.9259782957        3.4408054799
  C        24.2738427452       16.9019276261        2.7648145147
  C        21.5272229473       17.8905521418        5.1828497901
  C        21.5510194206       17.8822784866        6.6041805984
  C        22.7693528532       17.7660443537        7.3462395364
  C        14.0465546192       17.8281625509        2.2944020695
  C        15.3505231741       17.8829747459        3.0203707747
  C        15.6084767847       18.8845855239        3.9693170515
  C        16.8172619083       18.9024124437        4.6626621714
  C        17.8023338476       17.9214551044        4.4292740056
  C        17.5491835065       16.9442550100        3.4480857583
  C        16.3399217120       16.9217935919        2.7563552678
  C        19.0713050211       17.9016963745        5.1982598097
  C        19.0698866626       17.8992642694        6.6207312252
  C        17.8627853532       17.8022420282        7.3821047720
  C        46.8070794743       17.2208339979        2.1648210916
  C        45.5194484779       17.1668870520        2.9134987506
  C        45.3116439234       16.1953425514        3.9044297007
  C        44.1316084027       16.1877243890        4.6431152464
  C        43.1312512050       17.1516935412        4.4113231732
  C        43.3365172607       18.1030081108        3.3942044583
  C        44.5171336496       18.1147291504        2.6569789646
  C        41.8788249304       17.1723777912        5.1989205026
  C        41.8836482970       17.1735346772        6.6203427097
  C        43.0922248505       17.2642750844        7.3801691910
  C        20.3165861693       17.9098156529        7.3291245708
  C        20.2954849383       17.8802098936        4.5159185146
  C        46.7864490482       17.2313447479       13.8851967187
  C        45.4825757490       17.1283984674       13.1717039071
  C        45.2624587174       16.1356480871       12.2052305236
  C        44.0742864759       16.1158855641       11.4792625641
  C        43.0781473947       17.0857035598       11.7038331338
  C        43.2877024473       18.0466221676       12.7102228059
  C        44.4770485161       18.0730865547       13.4307641140
  C        41.8336353019       17.1180652138       10.9058334674
  C        41.8607758287       17.1437853424        9.4854309802
  C        43.0813855739       17.2476913915        8.7465457496
  C        46.1532792280       26.6371995088        8.7211956373
  C        46.1625624706       26.6561632784       11.5308347005
  C        14.0455959884       17.8319116814       13.7038112215
  C        15.3665850408       17.9067064260       13.0138123988
  C        15.6389934438       18.9207803156       12.0834598960
  C        16.8680099066       18.9581272288       11.4287246350
  C        17.8521669746       17.9806565617       11.6787951803
  C        17.5867872436       16.9959569598       12.6477383261
  C        16.3597271351       16.9579296569       13.3057911235
  C        19.1192598484       17.9546082813       10.9097650601
  C        19.0949088337       17.9251917036        9.4884680355
  C        17.8751079974       17.8137097025        8.7480733802
  C        28.8103614851       14.0931647300        2.3981018629
  C        28.1949772492       12.9202494172        3.0866816988
  C        28.9200565683       12.1725442363        4.0263365725
  C        28.3198474346       11.0976819257        4.6776603216
  C        26.9806141517       10.7462555280        4.4128534447
  C        26.2770819547       11.4743850171        3.4368120632
  C        26.8749912263       12.5496222890        2.7842324258
  C        26.3120299962        9.6655591265        5.1734413648
  C        26.3044777641        9.6895404082        6.5944761855
  C        26.8127713753       10.8002426567        7.3401911275
  C        32.1806429536       21.2399774029        2.1429203355
  C        32.7812362695       22.4010219787        2.8669873517
  C        32.0334688802       23.0823108584        3.8396645513
  C        32.6068863262       24.1192360770        4.5696223813
  C        33.9434406847       24.5032419284        4.3467692124
  C        34.6741645280       23.8398402762        3.3432406309
  C        34.1031358233       22.7970791287        2.6156850207
  C        34.5734577686       25.5787555909        5.1463163734
  C        34.5654137496       25.5512350438        6.5678169918
  C        34.0537001705       24.4379546168        7.3066232719
  C        25.6959893146        8.6114790543        7.3138832046
  C        25.6726787914        8.6163282075        4.5003814101
  C        32.1028335266       21.2250228794       13.8729841393
  C        32.6950475817       22.3766157543       13.1295342007
  C        31.9623401573       23.0376614065       12.1317549321
  C        32.5447453369       24.0672022247       11.3960883476
  C        33.8737017896       24.4654654357       11.6400783328
  C        34.5892935526       23.8179403917       12.6653828308
  C        34.0115260791       22.7831337958       13.3963818069
  C        34.5157533650       25.5459166999       10.8564293935
  C        34.5348125069       25.5347971875        9.4347120810
  C        34.0380489809       24.4305016833        8.6731325680
  C        40.6242679304       17.1525042708        8.7609368471
  C        40.6027787129       17.1419586131       11.5703197625
  C        28.7507498435       14.0686224600       13.8127513464
  C        28.1442059546       12.9189211138       13.0752576383
  C        28.8803294565       12.2278866894       12.1008208175
  C        28.3027547717       11.1689007182       11.4039552223
  C        26.9727534720       10.7755270668       11.6554607461
  C        26.2539752232       11.4547642442       12.6569016613
  C        26.8301979583       12.5135743630       13.3560944272
  C        26.3312145616        9.6844959681       10.8829608090
  C        26.3159934178        9.6991107075        9.4611147550
  C        26.8162272683       10.8060988530        8.7059728125
  C        18.1354789478        3.1810830821        2.3222828147
  C        17.4062211315        4.2783130686        3.0209091465
  C        16.3903843756        3.9999667839        3.9483048699
  C        15.7426794437        5.0399630430        4.6117884680
  C        16.0947194597        6.3836715385        4.3722099031
  C        17.0842227716        6.6531780275        3.4085666082
  C        17.7333031390        5.6158258485        2.7435190040
  C        15.4703481987        7.4913496401        5.1352440178
  C        15.4855704240        7.4906177118        6.5569558417
  C        16.1871230779        6.4969979900        7.3101239690
  C        42.9459485144       31.8595898629        2.0779937546
  C        43.6463529366       30.7719207746        2.8219764685
  C        44.5917809513       31.0932594146        3.8081328773
  C        45.1975037566       30.0877160309        4.5557982819
  C        44.8711884107       28.7346444931        4.3408382790
  C        43.9454808240       28.4202910397        3.3275225664
  C        43.3366498928       29.4254287466        2.5794932162
  C        45.4887342881       27.6553258495        5.1440257244
  C        45.4928183225       27.6809050910        6.5657188896
  C        44.8057119544       28.6889346474        7.3123512721
  C        14.8565427797        8.5630713605        7.2693214173
  C        14.8751417251        8.5631582720        4.4566543801
  C        42.9464867657       31.9616505890       13.8038820960
  C        43.6917868715       30.8855122670       13.0904343625
  C        44.6562866464       31.1914226188       12.1180497329
  C        45.2778339835       30.1718394223       11.4003326939
  C        44.9541655028       28.8215146137       11.6380529779
  C        44.0208034790       28.5238431379       12.6489433684
  C        43.3925229742       29.5406079579       13.3611060754
  C        45.5631577919       27.7241038698       10.8527868189
  C        45.5333400166       27.7173702918        9.4314920003
  C        44.8269798630       28.7075738861        8.6785364904
  C        35.1440335400       26.6252139438        8.7300464144
  C        35.1244469832       26.6052628321       11.5398445486
  C        18.1486203734        3.2470914966       13.7014671333
  C        17.4300411909        4.3439005632       12.9922110823
  C        16.4146892023        4.0526351676       12.0687878195
  C        15.7664133784        5.0832784408       11.3933953557
  C        16.1212542086        6.4284921714       11.6159816737
  C        17.1127824074        6.7118673573       12.5730814001
  C        17.7604342532        5.6829497115       13.2528568555
  C        15.4907191809        7.5241718823       10.8435503532
  C        15.4965551514        7.5075088587        9.4224211593
  C        16.1933328080        6.5058125975        8.6757291405
  H        10.6723013961       12.4654132501       11.8998497925
  H        11.6945731685       10.5506253648       10.6579594284
  H        15.3919725486       11.1690951614       12.7666283599
  H        14.3515183541       13.0718554221       14.0118107859
  H        13.3760475088       11.6311085818        9.1962375330
  H        50.3228844581       22.7483957408       11.9816179571
  H        49.3197232279       24.6228640268       10.6756210364
  H        45.6424449196       24.1614661874       12.8588680613
  H        46.6634011356       22.2904863884       14.1671027204
  H        47.6298476316       23.5758840706        9.2411346050
  H        14.8723857336        8.5884245927       12.6034576840
  H        50.2871634187       22.7025903855        4.0656402688
  H        49.2691717965       24.5754374342        5.3657063648
  H        45.6107932090       24.1095724945        3.1508981383
  H        46.6529681808       22.2542367322        1.8366064811
  H        47.6077976453       23.5518344366        6.8019902635
  H        40.6628889569       17.1562730843        3.4305438737
  H        48.6870846888       14.0949496231       15.7949064830
  H        10.6812754921       12.4664270964        4.0981714225
  H        11.6895911780       10.5244931613        5.3018652562
  H        15.3937994412       11.1593570179        3.2110765864
  H        14.3652730339       13.0877527660        1.9958245190
  H        13.3757364262       11.6220950245        6.7582335792
  H        47.9302606533       14.2181225295        1.7161160018
  H        47.7800989921       14.3736121697       14.4901048943
  H        49.0846165687       18.5528707632        2.8727318810
  H        10.4162469106       14.1342445995        0.0037996609
  H        24.4849503899        3.0251262475       11.9134391482
  H        25.6307373373        4.8819661389       10.6886658105
  H        23.2634384320        7.7535646621       12.8445075562
  H        22.1352637732        5.8870028881       14.0704521726
  H        23.8172104726        5.7909310941        9.2650511674
  H        36.3810336660       32.1855455810       11.9570261479
  H        35.2603826140       30.3588103108       10.6763524094
  H        37.5178453368       27.4386123017       12.8851508911
  H        38.6192421812       29.2781592566       14.1736957437
  H        37.0375378777       29.4434858906        9.2664140874
  H        25.7580383873        8.6029496334       12.6482351149
  H        36.4570040993       32.2367864687        4.1188865388
  H        35.3497092946       30.4150757153        5.4132997924
  H        37.5353182309       27.4854254275        3.1440930059
  H        38.6175495245       29.3188228136        1.8376590092
  H        37.0577872676       29.4612854073        6.8280843870
  H        46.1096122285       26.5877459390        3.3907229575
  H        44.6683377833       35.1162195440       15.8088326105
  H        24.4327479812        3.0411464150        4.0960002916
  H        25.5621176153        4.8808797324        5.3478017809
  H        23.1639648606        7.7688076639        3.2488982103
  H        22.0462267011        5.9170867968        1.9969840619
  H        23.7884875215        5.7945281941        6.8268475176
  H        44.9539773727       34.3905664182        1.7004076947
  H        44.9018888329       34.2068066908       14.4855907589
  H        40.6661329253       33.2093194655        2.8583452340
  H        23.1504816987        1.9579800620        0.0106300489
  H        25.8277775516       19.6379290796       11.8915277580
  H        23.6547801635       19.6874473208       10.6620703366
  H        22.3417514929       16.2326743243       12.8617903133
  H        24.5174937332       16.2010797775       14.0899658307
  H        23.7218594656       17.6571598736        9.2431776624
  H        35.1608662537       15.4560887286       11.9779442064
  H        37.2794739095       15.4330282324       10.6597982865
  H        38.6925142838       18.8260995432       12.8944778451
  H        36.5650225636       18.8329332494       14.2128908894
  H        37.2322793335       17.4253740548        9.2427473626
  H        20.3580947071       17.9862286149       12.6645580979
  H        35.2200417399       15.4637266912        4.0676179551
  H        37.3531606946       15.4255429936        5.3712970379
  H        38.7301397158       18.8712905912        3.1962862150
  H        36.5924983636       18.8893153680        1.8912901780
  H        37.2514235711       17.4327974713        6.7968816250
  H        35.1586020226       26.6747375508        3.3986045810
  H        28.4927041365       21.0735688148       15.8737831777
  H        25.7405297386       19.6385356112        4.1506006901
  H        23.5578877728       19.6838240612        5.3711433131
  H        22.3089111190       16.1575185061        3.2500766282
  H        24.4941666243       16.1307683237        2.0304631678
  H        23.6998233335       17.6377656731        6.8012797331
  H        29.0087813728       21.7197607093        1.7426812880
  H        29.2086154411       21.7060506200       14.5714740085
  H        32.1244763708       18.5892708273        2.9458738744
  H        27.3706630915       19.0178027960        0.0744499356
  H        14.8512950798       19.6447141584        4.1482769021
  H        17.0136199729       19.6853717808        5.3920063064
  H        18.2992766260       16.1791295244        3.2586013883
  H        16.1329858593       16.1539962476        2.0146618818
  H        16.9202387994       17.6860809897        6.8550484015
  H        46.0915878833       15.4601954424        4.0884355953
  H        43.9692259621       15.4268682653        5.4033489121
  H        42.5714110256       18.8548619903        3.2122999108
  H        44.6937949996       18.8631044302        1.8880831699
  H        44.0344643191       17.3781873683        6.8517824731
  H        20.2896726311       17.9098700811        3.4277799325
  H        46.0382584425       15.3952225333       12.0240071695
  H        43.9054709139       15.3467283008       10.7287517147
  H        42.5224303503       18.7988321806       12.8898250694
  H        44.6621436787       18.8344924463       14.1843773285
  H        44.0153527552       17.3477034877        9.2919222925
  H        46.1995706945       26.6827916165       12.6182723489
  H        52.7413006025       21.0626680045        0.1998086865
  H        14.8776879654       19.6732893250       11.8900684430
  H        17.0784441884       19.7472087404       10.7099915338
  H        18.3383295315       16.2351973626       12.8485514809
  H        16.1393035446       16.1846210789       14.0376197405
  H        16.9417205693       17.7063603093        9.2924553572
  H        52.3227344303       21.6734165559       14.2891133458
  H        52.0134673742       21.7022182753        1.5008045729
  H        49.0680338000       18.6078967458       13.1988648524
  H        13.2479243345       19.0160695638       15.9724128946
  H        29.9528960727       12.4469148383        4.2296229960
  H        28.8837148979       10.5162724419        5.4039901316
  H        25.2423440552       11.2128321530        3.2249928071
  H        26.3300483855       13.1326063960        2.0457745902
  H        27.1749430834       11.6688971717        6.7988294872
  H        31.0058882456       22.7737337659        4.0166306299
  H        32.0217847182       24.6478399698        5.3190817712
  H        35.7085537404       24.1272452790        3.1658790689
  H        34.6719408667       22.2596193948        1.8603199770
  H        33.6951187711       23.5711356794        6.7590760749
  H        25.6994926103        8.5985427945        3.4122625600
  H        30.9386799850       22.7255078111       11.9386231692
  H        31.9694568736       24.5812687051       10.6291291311
  H        35.6179450749       24.1147883144       12.8594782386
  H        34.5687505792       22.2609165786       14.1707017315
  H        33.6672111951       23.5577333420        9.2029405025
  H        40.5946101691       17.0956566115       12.6576234150
  H        32.5098792054       14.1454914174        0.2572676520
  H        29.9059282216       12.5350443228       11.9085723922
  H        28.8817224901       10.6282738067       10.6582700870
  H        25.2248317523       11.1641605195       12.8578224718
  H        26.2719365184       13.0537794205       14.1170500212
  H        27.1797948082       11.6793703418        9.2395672784
  H        33.3117304963       14.2268778007       14.4643225495
  H        33.4102043168       14.4064458900        1.6046836265
  H        32.1097892205       18.4898911691       13.1553329273
  H        30.2208363391       14.1904756495        0.0749537724
  H        16.1182230438        2.9634745194        4.1346193522
  H        14.9531357866        4.8206177240        5.3273555367
  H        17.3667909068        7.6860370774        3.2155617098
  H        18.5154470532        5.8184762910        2.0157848835
  H        16.7537346144        5.7397020666        6.7766192345
  H        44.8280045203       32.1403512616        3.9823523036
  H        45.9373289128       30.3414939756        5.3117758303
  H        43.6829405415       27.3782018135        3.1572957069
  H        42.6001633909       29.1901024438        1.8147024011
  H        44.2304236872       29.4367482196        6.7740390321
  H        14.8514827216        8.5464480260        3.3684305900
  H        44.8997816901       32.2341086713       11.9265606807
  H        46.0246891554       30.4130900038       10.6470513030
  H        43.7640027235       27.4840977363       12.8406340431
  H        42.6461608324       29.3178272834       14.1196898228
  H        44.2685376504       29.4705028376        9.2131291903
  H        35.0796156699       26.6194768566       12.6271947766
  H        36.6051903368       35.1341080198        0.1857347639
  H        16.1434770916        3.0130724924       11.8991909337
  H        14.9739867611        4.8564723784       10.6834108312
  H        17.3964801254        7.7473128475       12.7498001392
  H        18.5434862842        5.8934044067       13.9774280181
  H        16.7648034519        5.7556018244        9.2141701848
  H        36.2785421944       34.4826947324       14.2679983838
  H        36.3809191574       34.2092093859        1.5047639769
  H        40.5805693334       33.2028806855       13.1482717394
  H        17.4709116008        1.9478749213       15.9690703860
  H        29.0702958455       19.4658001438        4.5008675531
  H        29.8730629586       19.6483161984       11.5512842837
  H        32.0174068274       15.7421328952       11.5843667145
  H        31.2662572424       15.5898005333        4.5016455264
  H        28.0147630168       18.2212047729        6.6440466956
  H        29.4897675099       15.1846446339        6.3893509409
  H        31.8112668507       19.7188361684        9.2803664381
  H        33.0487627665       17.1497149526        9.0540959472
  H        28.8948403120       16.7429775561        9.2204246179
  H        18.8534917414        0.8690072865        4.3403774492
  H        40.5282269512       35.2291943852       11.9468768931
  H        42.3244218850       34.4192161900       11.5850790486
  H        22.0876282669        0.6920600366        4.3567410363
  H        11.5968373002       18.7129009250        4.3877346542
  H        52.2648171539       18.4314609385       11.6718853437
  H        49.2558943479       16.4767027189       11.5790800274
  H        10.1495578185       15.7982091832        4.2981369487
  H        50.8502132375       17.6922899344       11.9491609633
  H        10.0458776740       17.3944511554        4.0570471632
  H        20.2148684980        0.0022604784        4.0470487634
  H        39.1840205003       36.1248760780       11.6814429805
 Ni        30.9439004806       17.6671905039       10.6623514916
 Ni        31.1571245663       16.2711311105        7.8284702417
 Ni        29.9239381845       18.8496981690        8.0726692767
 Ni        30.2254566046       17.5427767590        5.0881740302
  O        10.6499435390       14.3650694725       13.4807626589
  O        12.6131791655       14.6574961225       14.5787890221
  O        49.1481684623       16.8458351972       15.9846049468
  O        50.3503154485       20.9358498074       13.6429105492
  O        48.3485977390       20.5933782684       14.6607824025
  O        11.0518597690       17.0538049244       14.4955993868
  O        50.3210898765       20.8816792501        2.4119674086
  O        48.3467856201       20.5868462105        1.3322766714
  O        49.5438517059       18.2484067226        2.0733662764