     574
 i =      350, E =     -4778.8674568123
  C        11.8585804741       14.0536537130       13.7364598696
  C        12.4561455986       12.8906663532       13.0180586771
  C        11.7044083488       12.1716783654       12.0765114154
  C        12.2807794441       11.1094594556       11.3841455361
  C        13.6213702107       10.7397531662       11.6118358835
  C        14.3545930221       11.4433941129       12.5851960685
  C        13.7817028054       12.5083878269       13.2766857850
  C        14.2609427025        9.6490716220       10.8384870291
  C        14.2564328078        9.6569962416        9.4167871069
  C        13.7433189058       10.7591453670        8.6628831136
  C        49.1266986226       21.2332034683       13.8746292579
  C        48.5498810747       22.4010869426       13.1474798204
  C        49.3000736080       23.0686865190       12.1667988458
  C        48.7331440169       24.1078217615       11.4335929468
  C        47.4024428128       24.5091074026       11.6618837437
  C        46.6712629754       23.8598835960       12.6749954462
  C        47.2337227997       22.8149787625       13.4043568528
  C        46.7722888514       25.5868899429       10.8646304444
  C        46.7613996043       25.5573860122        9.4428629998
  C        47.2613849394       24.4423070769        8.6993827506
  C        14.8603900901        8.5706470505        8.7035548445
  C        14.8915038096        8.5970258972       11.5151753694
  C        49.1131243906       21.2033715629        2.1504501244
  C        48.5276999717       22.3646973119        2.8776493920
  C        49.2670727310       23.0256972529        3.8702611956
  C        48.6907286578       24.0602443863        4.6017201814
  C        47.3601831466       24.4567157560        4.3637440599
  C        46.6395749771       23.8114655413        3.3405889416
  C        47.2131427035       22.7755519698        2.6088144064
  C        46.7217762584       25.5317324944        5.1547524456
  C        46.7336423850       25.5281972620        6.5764547816
  C        47.2491185530       24.4290015887        7.3328316140
  C        40.6211448576       17.0963109339        7.3154539015
  C        40.6319738306       17.1035153343        4.5055291094
  C        11.8829194309       14.0866305112        2.2905491096
  C        12.4723123046       12.9107583902        2.9948577946
  C        11.7147339007       12.1774301448        3.9207862400
  C        12.2813103813       11.0949593771        4.5892332360
  C        13.6201837304       10.7213943935        4.3575476861
  C        14.3582411836       11.4370869339        3.3969170594
  C        13.7928073023       12.5182669828        2.7242332747
  C        14.2537878009        9.6246095093        5.1279460136
  C        14.2526810076        9.6446465747        6.5497878678
  C        13.7428006673       10.7536091060        7.2968368848
  C        22.5125943742        3.2437811726       13.7492170016
  C        23.2305015224        4.3485155586       13.0515634518
  C        24.2295550573        4.0663320408       12.1083492764
  C        24.8599343371        5.1045164879       11.4274468444
  C        24.5068582878        6.4466896028       11.6702797398
  C        23.5361433710        6.7206381983       12.6507901039
  C        22.9010411909        5.6840589876       13.3299172820
  C        25.1152032107        7.5512233778       10.8940438354
  C        25.0846573794        7.5436235761        9.4728283797
  C        24.3762008831        6.5468865187        8.7291637991
  C        38.3023897762       31.9298892305       13.8441565327
  C        37.5724993923       30.8408086224       13.1352112480
  C        36.6146525676       31.1447888780       12.1557897724
  C        35.9976112685       30.1244122248       11.4376451413
  C        36.3235259069       28.7751900120       11.6776904947
  C        37.2512311636       28.4787484088       12.6939613474
  C        37.8726555154       29.4977970422       13.4107275563
  C        35.7217539436       27.6834472201       10.8804277097
  C        35.7544733089       27.6978605979        9.4592008680
  C        36.4618488260       28.6994009833        8.7222410561
  C        25.7100324341        8.6107842211        8.7511405342
  C        25.7159378604        8.6249742779       11.5630374052
  C        38.3288924015       31.9620984518        2.1615368867
  C        37.6079602424       30.8889994692        2.9035051582
  C        36.6801586244       31.1973857196        3.9101482844
  C        36.0708765946       30.1785782825        4.6398476832
  C        36.3751322865       28.8260437343        4.3864622604
  C        37.2804562675       28.5277082694        3.3496948429
  C        37.8919418150       29.5429337590        2.6212818493
  C        35.7678814816       27.7266689926        5.1705897320
  C        35.7780005592       27.7200166449        6.5925426861
  C        36.4725551846       28.7103783497        7.3557357239
  C        46.1356542784       26.6208499386        7.2865786501
  C        46.0876854911       26.5799900405        4.4786789743
  C        22.4587742024        3.2552063475        2.2633228664
  C        23.1491097589        4.3643731058        2.9892207526
  C        24.1497476784        4.0786492226        3.9314519353
  C        24.7745957779        5.1090177080        4.6296637060
  C        24.4186426419        6.4543715540        4.4076924999
  C        23.4404506624        6.7334370125        3.4345727642
  C        22.8109254309        5.7031835225        2.7370346099
  C        25.0500479423        7.5519877166        5.1812984386
  C        25.0520760170        7.5430794014        6.6040754122
  C        24.3591183143        6.5473389829        7.3627066267
  C        26.6215590704       17.8606215629       13.7743363848
  C        25.3142200928       17.9078725229       13.0511385990
  C        25.0529262827       18.9031447584       12.0960353190
  C        23.8395661772       18.9203502645       11.4103912195
  C        22.8506182165       17.9465517883       11.6583068577
  C        23.1078358553       16.9749186295       12.6440831958
  C        24.3230569150       16.9515649835       13.3266620507
  C        21.5772803648       17.9286254201       10.8939921180
  C        21.5776819309       17.9031107060        9.4715171724
  C        22.7833009216       17.7779340174        8.7113972610
  C        34.4397040485       17.1940353284       13.9136181334
  C        35.7314722174       17.1423047547       13.1696183510
  C        35.9134262767       16.1998180650       12.1458018244
  C        37.0950977402       16.1822671010       11.4103107648
  C        38.1235507769       17.1080915501       11.6741795959
  C        37.9413151812       18.0319567810       12.7214730542
  C        36.7587083395       18.0535795937       13.4569983297
  C        39.3757509255       17.1164082057       10.8844985690
  C        39.3690504609       17.1305136818        9.4621092125
  C        38.1615061309       17.2583225146        8.7058498373
  C        20.3312455693       17.9192151721        8.7626521774
  C        20.3523927607       17.9323481264       11.5761366054
  C        34.4419848120       17.2395201734        2.1937454739
  C        35.7432603300       17.1354971993        2.9142231105
  C        35.9405544197       16.1676163895        3.9105354090
  C        37.1305766790       16.1384151268        4.6338057263
  C        38.1521940324       17.0751216336        4.3805745319
  C        37.9604800537       18.0145305231        3.3497085176
  C        36.7700723326       18.0496295522        2.6300982457
  C        39.4016608086       17.0932791707        5.1732772955
  C        39.3821341577       17.1167246768        6.5947331148
  C        38.1677496237       17.2486485513        7.3393319216
  C        35.1470173238       26.6410479583        7.2964261453
  C        35.1779349901       26.6560122657        4.4874697284
  C        26.5715721606       17.8267917232        2.3282219139
  C        25.2558334011       17.8703995676        3.0340393975
  C        24.9926361920       18.8709997722        3.9817137687
  C        23.7752778534       18.8939195191        4.6565308398
  C        22.7916515967       17.9158855960        4.4075322332
  C        23.0486807463       16.9408504151        3.4266758534
  C        24.2667690836       16.9161116004        2.7500776007
  C        21.5285180407       17.8948825694        5.1812204515
  C        21.5525954347       17.8842009184        6.6028177110
  C        22.7708876221       17.7685652393        7.3450986158
  C        14.0464398243       17.8282877474        2.2942204687
  C        15.3507763366       17.8833737668        3.0201341900
  C        15.6083800261       18.8845066736        3.9696405106
  C        16.8173535739       18.9026846763        4.6627639291
  C        17.8029932794       17.9225673876        4.4284646258
  C        17.5501812639       16.9458053232        3.4467833172
  C        16.3406626346       16.9229292705        2.7554292375
  C        19.0722490287       17.9031119281        5.1971823964
  C        19.0711670433       17.8980087189        6.6196379283
  C        17.8642610978       17.7978049058        7.3808819496
  C        46.8025244047       17.2163081720        2.1622606885
  C        45.5095668782       17.1466012012        2.9030068533
  C        45.3057115414       16.1650992451        3.8855478013
  C        44.1219416005       16.1380119758        4.6182038450
  C        43.1108403110       17.0921720554        4.3911052106
  C        43.3113367994       18.0522508829        3.3806350474
  C        44.4960494268       18.0833752438        2.6487850739
  C        41.8577675360       17.0978048145        5.1812784669
  C        41.8664242753       17.1049710153        6.6036105462
  C        43.0767515884       17.2038571600        7.3595650162
  C        20.3179826141       17.9089924811        7.3278132793
  C        20.2963277152       17.8845676673        4.5147799928
  C        46.7848829808       17.2319677049       13.8815405377
  C        45.4835245133       17.1267865623       13.1620573955
  C        45.2678565668       16.1294767712       12.1986141242
  C        44.0807453666       16.1010198386       11.4706625744
  C        43.0788404203       17.0668880364       11.6882585633
  C        43.2856011972       18.0347722186       12.6891695135
  C        44.4737205328       18.0695789365       13.4124352864
  C        41.8312845489       17.0864881808       10.8924273486
  C        41.8530772573       17.0988640973        9.4711123525
  C        43.0703596728       17.1982158709        8.7264320762
  C        46.1534486380       26.6373077272        8.7211222088
  C        46.1622091995       26.6559210074       11.5307704217
  C        14.0453775767       17.8312249425       13.7034659753
  C        15.3665313918       17.9039741605       13.0126819143
  C        15.6406004568       18.9173005291       12.0820529568
  C        16.8697264080       18.9525679871       11.4272343143
  C        17.8525839853       17.9737870311       11.6774437505
  C        17.5853917903       16.9895634824       12.6463545501
  C        16.3582327431       16.9536114370       13.3044794588
  C        19.1200951569       17.9468746081       10.9088211781
  C        19.0961337418       17.9190781233        9.4874082662
  C        17.8764412191       17.8070749181        8.7468905115
  C        28.7926158353       14.0868885191        2.3946143146
  C        28.1775566559       12.9185752542        3.0868882182
  C        28.9205894773       12.1349839713        3.9829037629
  C        28.3203201695       11.0623199434        4.6373281643
  C        26.9646867284       10.7473356883        4.4149483325
  C        26.2411247406       11.5113611113        3.4825576221
  C        26.8384945921       12.5859902378        2.8285203783
  C        26.3021381896        9.6631611832        5.1759712424
  C        26.3071331132        9.6832967924        6.5963276558
  C        26.8271177612       10.7902164960        7.3398601938
  C        32.1812490857       21.2438611473        2.1436693570
  C        32.7771848335       22.4099344813        2.8613608983
  C        32.0304434092       23.0823442939        3.8411716193
  C        32.6014795889       24.1192723330        4.5724944906
  C        33.9347307857       24.5117343932        4.3448849443
  C        34.6635877642       23.8579905840        3.3334429501
  C        34.0951060089       22.8153877856        2.6038817572
  C        34.5634969361       25.5858806764        5.1468506159
  C        34.5551459818       25.5571839724        6.5686352051
  C        34.0458904900       24.4425095695        7.3071992353
  C        25.6974774168        8.6069151010        7.3168251458
  C        25.6584879710        8.6172145130        4.5032758189
  C        32.1040124420       21.2266485846       13.8747845651
  C        32.6931121213       22.3796649463       13.1330544514
  C        31.9554057985       23.0440946824       12.1413311807
  C        32.5354890578       24.0736074982       11.4038455397
  C        33.8664567312       24.4688612385       11.6415830353
  C        34.5867304432       23.8184134455       12.6615965061
  C        34.0117066171       22.7828283566       13.3933992685
  C        34.5072568443       25.5496664886       10.8571081555
  C        34.5253838329       25.5392619716        9.4353125079
  C        34.0303492210       24.4340861692        8.6738724388
  C        40.6138954139       17.0985123656        8.7503760926
  C        40.6018549007       17.1101802052       11.5601103664
  C        28.7474114630       14.0702666311       13.8113673063
  C        28.1405856497       12.9220720820       13.0726178726
  C        28.8851729014       12.2138135275       12.1169464291
  C        28.3072061716       11.1549415105       11.4202404721
  C        26.9696901025       10.7779996911       11.6549160964
  C        26.2420045036       11.4738312780       12.6381267802
  C        26.8181441442       12.5333036645       13.3363087179
  C        26.3302183612        9.6848550999       10.8837619142
  C        26.3213186995        9.6954089726        9.4621478216
  C        26.8308305412       10.7977931769        8.7058095213
  C        18.1352679350        3.1808911181        2.3222431204
  C        17.4058694575        4.2781124193        3.0207680050
  C        16.3907656884        3.9996993577        3.9489474087
  C        15.7430193114        5.0396566162        4.6124562620
  C        16.0942932379        6.3834519856        4.3721925787
  C        17.0829079359        6.6529923529        3.4076218928
  C        17.7320085133        5.6156829038        2.7425503557
  C        15.4701106771        7.4911825818        5.1352618085
  C        15.4855361765        7.4905541204        6.5569765204
  C        16.1870855131        6.4969696585        7.3102009972
  C        42.9458974127       31.8593521529        2.0780003625
  C        43.6461978645       30.7717834435        2.8219284473
  C        44.5918454485       31.0930672522        3.8079257058
  C        45.1975379029       30.0874906237        4.5555293378
  C        44.8709376485       28.7344325476        4.3407918167
  C        43.9450219446       28.4201361172        3.3276414922
  C        43.3362060589       29.4252988846        2.5796420673
  C        45.4885929780       27.6551727552        5.1439654869
  C        45.4929155866       27.6809473113        6.5656521393
  C        44.8058008372       28.6889808674        7.3122696049
  C        14.8566670063        8.5631146585        7.2693289798
  C        14.8748239741        8.5629729585        4.4566789488
  C        42.9464781656       31.9613865421       13.8038337587
  C        43.6916237118       30.8853695135       13.0903689190
  C        44.6563272156       31.1912613781       12.1181406507
  C        45.2778108923       30.1716689909       11.4004264574
  C        44.9539407947       28.8213362372       11.6379636810
  C        44.0203002385       28.5236898910       12.6486106587
  C        43.3920544013       29.5404553346       13.3607884435
  C        45.5630287656       27.7239852310       10.8527117034
  C        45.5334288698       27.7174260007        9.4314167073
  C        44.8271049904       28.7076447351        8.6784535194
  C        35.1335145881       26.6307619182        8.7311320165
  C        35.1166104647       26.6083679783       11.5409112931
  C        18.1484343287        3.2469626440       13.7015118514
  C        17.4297091465        4.3437994658       12.9923899648
  C        16.4148024523        4.0524871764       12.0684907292
  C        15.7664863247        5.0831118957       11.3930989625
  C        16.1208016093        6.4283980678       11.6161179677
  C        17.1117458472        6.7117927852       12.5738395059
  C        17.7594194811        5.6829051160       13.2536322814
  C        15.4904279191        7.5241134245       10.8436228570
  C        15.4964882340        7.5075019048        9.4224886516
  C        16.1932540899        6.5057875089        8.6758071772
  H        10.6722476439       12.4657753761       11.8995924622
  H        11.6944328058       10.5509104238       10.6577013667
  H        15.3916548390       11.1688545055       12.7668334779
  H        14.3511502118       13.0717563415       14.0120229554
  H        13.3761845280       11.6312093244        9.1962132667
  H        50.3228943149       22.7488701662       11.9823086318
  H        49.3197154487       24.6232934598       10.6762223801
  H        45.6415698780       24.1602221603       12.8577600784
  H        46.6625044603       22.2893912585       14.1660603783
  H        47.6298401037       23.5758982089        9.2410786192
  H        14.8716313987        8.5882409970       12.6034798565
  H        50.2872191795       22.7030478102        4.0649653592
  H        49.2691906306       24.5758980754        5.3650358826
  H        45.6099987334       24.1083232411        3.1518536815
  H        46.6521271187       22.2530582255        1.8376129644
  H        47.6078210238       23.5518574967        6.8019235056
  H        40.6359312702       17.0635350032        3.4179057969
  H        48.6869447632       14.0950005917       15.7948632609
  H        10.6812002583       12.4664042835        4.0980213628
  H        11.6894311244       10.5244437550        5.3017673063
  H        15.3937261687       11.1593119428        3.2111328416
  H        14.3651495976       13.0878049398        1.9958382343
  H        13.3758916501       11.6221571466        6.7581433074
  H        47.9300540553       14.2185936332        1.7158202024
  H        47.7799319242       14.3734155910       14.4899467260
  H        49.0825275314       18.5518378067        2.8721099819
  H        10.4156299537       14.1344037505        0.0038342116
  H        24.4891734503        3.0271616969       11.9188937852
  H        25.6344379143        4.8857375054       10.6955158234
  H        23.2563174577        7.7541313623       12.8442098950
  H        22.1290576947        5.8855454168       14.0685760785
  H        23.8145961043        5.7919756414        9.2716999869
  H        36.3789242810       32.1880478012       11.9594560203
  H        35.2546211930       30.3631402874       10.6798668307
  H        37.5099177131       27.4395369062       12.8861995506
  H        38.6148659215       29.2770614874       14.1741690747
  H        37.0275636176       29.4485809517        9.2684355720
  H        25.7504967254        8.6100207610       12.6508882977
  H        36.4573717792       32.2414954825        4.1180165352
  H        35.3459434535       30.4230153615        5.4131096774
  H        37.5271128993       27.4875422555        3.1473393335
  H        38.6134932666       29.3175316202        1.8398234987
  H        37.0473799297       29.4676575711        6.8304460565
  H        46.1088822347       26.5872073506        3.3906374671
  H        44.6680968735       35.1160098283       15.8087688137
  H        24.4286712324        3.0406053101        4.0977869291
  H        25.5548589218        4.8808098621        5.3526122672
  H        23.1538941911        7.7676205707        3.2547098834
  H        22.0399053200        5.9150808892        1.9998707191
  H        23.7836389403        5.7935326292        6.8332592738
  H        44.9532647000       34.3898997501        1.6999671003
  H        44.9012472108       34.2065424598       14.4854963802
  H        40.6656771264       33.2085887064        2.8580227682
  H        23.1505787732        1.9571697591        0.0108293818
  H        25.8116472753       19.6592378873       11.9068073362
  H        23.6424108530       19.6979351871       10.6754654336
  H        22.3561145685       16.2143143476       12.8451303172
  H        24.5322735271       16.1873270123       14.0715473453
  H        23.7241491411       17.6595029713        9.2410677808
  H        35.1087550206       15.5004335155       11.9305114256
  H        37.2351518691       15.4423629462       10.6254108066
  H        38.7258065169       18.7567498847       12.9290765831
  H        36.6017328378       18.7822276552       14.2489943957
  H        37.2240865572       17.3946652064        9.2373831545
  H        20.3588212701       17.9759391258       12.6638681650
  H        35.1431558803       15.4573023702        4.1172410792
  H        37.2810256626       15.3855270898        5.4044174382
  H        38.7419221438       18.7442152827        3.1479291511
  H        36.6019811761       18.7945720036        1.8560896411
  H        37.2348207824       17.3764638939        6.7980987353
  H        35.1497332974       26.6823174844        3.3997999464
  H        28.5115326485       21.0866801802       15.9530076738
  H        25.7547179813       19.6234812699        4.1713972261
  H        23.5711523099       19.6743192337        5.3864274427
  H        22.2970056342       16.1797031158        3.2275908638
  H        24.4808620899       16.1522918963        2.0062945035
  H        23.7022899238       17.6430750924        6.8011137730
  H        28.9924869066       21.7247071169        1.7747692211
  H        29.1532297136       21.7471473133       14.6012672096
  H        32.1301912112       18.6138530853        2.9550070370
  H        27.4057874936       19.0798342653        0.0818472349
  H        14.8507314693       19.6440347180        4.1492236906
  H        17.0132788399       19.6852416826        5.3926665538
  H        18.3006923257       16.1812467512        3.2566868903
  H        16.1339056268       16.1554436951        2.0133545646
  H        16.9219011092       17.6813762930        6.8535167902
  H        46.0924412751       15.4370855033        4.0688991515
  H        43.9661136337       15.3696288344        5.3722862088
  H        42.5391044050       18.7971296857        3.1999036350
  H        44.6660260058       18.8396898872        1.8860084311
  H        44.0174425375       17.3155355441        6.8280431303
  H        20.2900920143       17.9166655727        3.4267128064
  H        46.0459546994       15.3902931874       12.0222586576
  H        43.9167142461       15.3262147721       10.7248944508
  H        42.5175267120       18.7852774606       12.8640662301
  H        44.6532577688       18.8357403971       14.1626817410
  H        44.0063853216       17.3042697786        9.2671947683
  H        46.1988545646       26.6823060599       12.6182259913
  H        52.7411171125       21.0626060786        0.1997624438
  H        14.8804842588       19.6709749854       11.8884155614
  H        17.0812348864       19.7412223037       10.7083446631
  H        18.3355666274       16.2274978152       12.8473526087
  H        16.1365481208       16.1807489240       14.0364061465
  H        16.9432106631       17.6977013883        9.2911472375
  H        52.3223818613       21.6732186745       14.2891680386
  H        52.0131601749       21.7020174628        1.5007717352
  H        49.0670160228       18.6076486128       13.1991207818
  H        13.2473772661       19.0163547226       15.9721889564
  H        29.9699901708       12.3742812563        4.1413702571
  H        28.8957936888       10.4505242521        5.3289333074
  H        25.1935203160       11.2764740482        3.3057731351
  H        26.2799374955       13.1969516922        2.1234139041
  H        27.1926681806       11.6562072654        6.7959894279
  H        31.0067113285       22.7649170138        4.0245611354
  H        32.0175144831       24.6401218894        5.3281529173
  H        35.6954615044       24.1518689835        3.1521922027
  H        34.6636415911       22.2849379716        1.8434057082
  H        33.6906736339       23.5734369259        6.7609634171
  H        25.6770429723        8.6034645892        3.4149521986
  H        30.9297254006       22.7330128650       11.9564323548
  H        31.9579020262       24.5896341236       10.6399658410
  H        35.6171888168       24.1126304803       12.8498381624
  H        34.5732972650       22.2569154046       14.1619423684
  H        33.6636663300       23.5582521212        9.2019655728
  H        40.5977403203       17.0704589523       12.6477038960
  H        32.5179777117       14.1520743861        0.2403089986
  H        29.9188572358       12.5033773680       11.9407262265
  H        28.8920819358       10.5996719203       10.6900449935
  H        25.2070456503       11.1951067371       12.8255010349
  H        26.2539837575       13.0863064029       14.0836142361
  H        27.1995341064       11.6692251268        9.2392184928
  H        33.2977674505       14.2040259241       14.4388404319
  H        33.4062215129       14.3768876832        1.6172513015
  H        32.1324903012       18.5076948508       13.1613492803
  H        30.2394279163       14.1921964888        0.0778945797
  H        16.1191295225        2.9631639825        4.1358033051
  H        14.9539729926        4.8201906641        5.3285362672
  H        17.3646193513        7.6859379533        3.2138366229
  H        18.5133318710        5.8183650790        2.0139506200
  H        16.7535632814        5.7395415609        6.7767491583
  H        44.8282519331       32.1401227877        3.9820646464
  H        45.9374627797       30.3411584882        5.3114426634
  H        43.6821473461       27.3780937314        3.1576297057
  H        42.5994847857       29.1899035688        1.8150979397
  H        44.2303017653       29.4366510831        6.7739856953
  H        14.8508166164        8.5461184443        3.3684648132
  H        44.8999644309       32.2339255365       11.9267466736
  H        46.0247781046       30.4128366358       10.6472351483
  H        43.7631682084       27.4839784278       12.8400515974
  H        42.6454278052       29.3175724418       14.1190816674
  H        44.2684448957       29.4704264957        9.2130237454
  H        35.0730472722       26.6211087178       12.6283320547
  H        36.6048733748       35.1339723017        0.1857677224
  H        16.1439342571        3.0128903306       11.8985311818
  H        14.9743634212        4.8562129494       10.6828035232
  H        17.3948137227        7.7473175801       12.7511073036
  H        18.5418972237        5.8933810362       13.9788157323
  H        16.7645644269        5.7554616968        9.2142553207
  H        36.2780011974       34.4827998838       14.2680378588
  H        36.3800409036       34.2095136456        1.5050723300
  H        40.5799211982       33.2020124937       13.1487322707
  H        17.4705085406        1.9470777436       15.9690099177
  H        28.9824857938       19.3431486808        4.4830533236
  H        28.9578354521       18.5224570849       11.7555650640
  H        30.8216743171       15.6533961884       11.6813051709
  H        30.5048991303       15.5196455730        4.1314291983
  H        28.1502001856       17.8042145180        6.5543204915
  H        30.2781667031       14.0576621063        7.2086498043
  H        30.5553972257       19.9945051681       10.0432404279
  H        32.6088317813       17.4731817426        9.1992669331
  H        28.7122039507       16.5585565329        8.5304817413
  H        18.8530353735        0.8689214195        4.3403186495
  H        40.5278093305       35.2291952490       11.9470111797
  H        42.3231425044       34.4178114532       11.5860167237
  H        22.0879211904        0.6918515659        4.3567573492
  H        11.5970598999       18.7129337074        4.3873499910
  H        52.2650405439       18.4309746402       11.6725848934
  H        49.2549367930       16.4772652281       11.5796662311
  H        10.1503386998       15.7982732531        4.2979306391
  H        50.8500248104       17.6924854098       11.9492071748
  H        10.0460786029       17.3946042113        4.0570795244
  H        20.2141731637        0.0021596288        4.0472373835
  H        39.1834877039       36.1245794678       11.6814231089
 Ni        31.0679138133       17.8889089580       10.9140142542
 Ni        31.0730991565       15.9287047019        8.6577923160
 Ni        30.0560520734       18.6137371484        7.9960453831
 Ni        30.3511031928       17.6697389285        5.2429628760
  O        10.6498575643       14.3650845681       13.4806835942
  O        12.6131639359       14.6574950746       14.5787630902
  O        49.1478036999       16.8460064253       15.9846959340
  O        50.3502076604       20.9359638356       13.6430509018
  O        48.3485221044       20.5932912036       14.6608588603
  O        11.0514261454       17.0539822292       14.4955361787
  O        50.3209883379       20.8816914900        2.4119222807
  O        48.3467100414       20.5867273113        1.3322173082
  O        49.5435802841       18.2484512464        2.0733604388