     574
 i =      202, E =     -4778.8601864067
  C        11.8588206942       14.0536825327       13.7363201989
  C        12.4563683249       12.8907614443       13.0179603313
  C        11.7044898832       12.1713454647       12.0768321000
  C        12.2809371207       11.1091424526       11.3845278618
  C        13.6217242706       10.7399066594       11.6118258633
  C        14.3551643348       11.4440999358       12.5846065750
  C        13.7822251399       12.5090988566       13.2760436533
  C        14.2612279111        9.6491538476       10.8385217628
  C        14.2566878478        9.6570806224        9.4168362500
  C        13.7435545121       10.7592493759        8.6629814946
  C        49.1268785851       21.2330704340       13.8745222943
  C        48.5501057087       22.4010566560       13.1474135815
  C        49.3001833133       23.0684189178       12.1664986337
  C        48.7332688031       24.1076015564       11.4333283446
  C        47.4027301722       24.5092205141       11.6619346787
  C        46.6717410926       23.8603125018       12.6753928846
  C        47.2341767731       22.8153813048       13.4047235015
  C        46.7724533982       25.5869098936       10.8646713171
  C        46.7614114184       25.5573347106        9.4429083724
  C        47.2614851639       24.4423213952        8.6993926152
  C        14.8605404296        8.5706761823        8.7036134090
  C        14.8918551915        8.5971779314       11.5152227555
  C        49.1133639766       21.2034842778        2.1503314310
  C        48.5279386702       22.3648315236        2.8776169385
  C        49.2672256924       23.0255801720        3.8704562481
  C        48.6909047797       24.0601245729        4.6019637285
  C        47.3605015803       24.4569117565        4.3637450969
  C        46.6399974694       23.8119040684        3.3403567944
  C        47.2135414976       22.7760121122        2.6085293897
  C        46.7220194983       25.5318670668        5.1547757915
  C        46.7337011376       25.5282263968        6.5764796498
  C        47.2492280183       24.4290459046        7.3328432809
  C        40.6217471248       17.1034091738        7.3121057090
  C        40.6304166774       17.1036569123        4.5025988939
  C        11.8832163578       14.0868181355        2.2908309583
  C        12.4726747302       12.9111019879        2.9951798186
  C        11.7150299736       12.1774071847        3.9207786545
  C        12.2817132774       11.0949464772        4.5891254576
  C        13.6207736358       10.7218262153        4.3577689464
  C        14.3589864660       11.4380259647        3.3976460435
  C        13.7934572099       12.5192021667        2.7250327179
  C        14.2543390160        9.6249439636        5.1280660580
  C        14.2530175231        9.6448204598        6.5498976772
  C        13.7431562700       10.7537940920        7.2969397525
  C        22.5133213446        3.2435318857       13.7497546448
  C        23.2327004982        4.3472212420       13.0528592334
  C        24.2318548697        4.0634132658       12.1101863664
  C        24.8640506145        5.1005493286       11.4295687348
  C        24.5124879169        6.4431295306       11.6720930856
  C        23.5417177225        6.7186401113       12.6521076265
  C        22.9048646947        5.6831542268       13.3311007414
  C        25.1213485467        7.5470747401       10.8958077694
  C        25.0897310937        7.5399432202        9.4746797756
  C        24.3820572852        6.5427049743        8.7309844945
  C        38.3034267281       31.9301126304       13.8434615243
  C        37.5760004529       30.8405843100       13.1324448066
  C        36.6194120594       31.1438705634       12.1516900525
  C        36.0048460749       30.1230036437       11.4320431813
  C        36.3320675786       28.7742409886       11.6724408035
  C        37.2590331563       28.4784563921       12.6894926137
  C        37.8779988452       29.4979697225       13.4076090764
  C        35.7317064458       27.6816159380       10.8754518106
  C        35.7652708578       27.6946574872        9.4543006458
  C        36.4719696565       28.6961739766        8.7166898926
  C        25.7126923918        8.6087216772        8.7534674397
  C        25.7223915050        8.6204069718       11.5650547491
  C        38.3289184890       31.9624462126        2.1607162034
  C        37.6077985284       30.8884185853        2.9011341128
  C        36.6801086718       31.1951495897        3.9082259393
  C        36.0721981192       30.1749522373        4.6370939505
  C        36.3779368744       28.8231691957        4.3819162358
  C        37.2824524650       28.5264390288        3.3441452291
  C        37.8925091361       29.5430280212        2.6166241921
  C        35.7737293142       27.7225641355        5.1662788612
  C        35.7868718989       27.7155586671        6.5880560766
  C        36.4817534569       28.7065181944        7.3501949227
  C        46.1355839111       26.6207969003        7.2866312356
  C        46.0880435392       26.5802120284        4.4787285782
  C        22.4591716734        3.2554450911        2.2635056059
  C        23.1496526382        4.3643626340        2.9894836595
  C        24.1523596291        4.0786635570        3.9296340264
  C        24.7771512124        5.1088286414        4.6282704884
  C        24.4191919320        6.4541367854        4.4089788686
  C        23.4390057930        6.7332057741        3.4377995581
  C        22.8097153887        5.7032097759        2.7396298693
  C        25.0501851818        7.5517612936        5.1831258635
  C        25.0539167278        7.5415580652        6.6059783952
  C        24.3635617572        6.5439799755        7.3645109665
  C        26.6220730860       17.8615236344       13.7759958899
  C        25.3131810947       17.9045649009       13.0543013543
  C        25.0594644835       18.8880255652       12.0853337150
  C        23.8462898776       18.9045363693       11.3995411812
  C        22.8508168630       17.9404950847       11.6596740026
  C        23.1014949885       16.9800542976       12.6578755645
  C        24.3163096681       16.9582228006       13.3417075100
  C        21.5779299385       17.9203037641       10.8948940263
  C        21.5775609368       17.8876992500        9.4724027824
  C        22.7824145854       17.7553640933        8.7121680689
  C        34.4430588842       17.1916574199       13.9139444944
  C        35.7361956775       17.1421400657       13.1689913742
  C        35.9382067825       16.1785436182       12.1684913866
  C        37.1177673922       16.1676953709       11.4293246745
  C        38.1281628522       17.1189748485       11.6707987990
  C        37.9291204437       18.0626028144       12.6965767037
  C        36.7464117184       18.0792643948       13.4325079614
  C        39.3805251155       17.1292158451       10.8813300443
  C        39.3720028798       17.1369328468        9.4594911421
  C        38.1627658894       17.2551348953        8.7045515323
  C        20.3310083156       17.9042519896        8.7636496603
  C        20.3527320967       17.9290980117       11.5766829661
  C        34.4410906125       17.2409798323        2.1912835931
  C        35.7419402804       17.1368379803        2.9138540870
  C        35.9391129074       16.1673801690        3.9085473102
  C        37.1296178123       16.1370979382        4.6312969678
  C        38.1507695736       17.0745393036        4.3791998797
  C        37.9587232731       18.0158676970        3.3502726535
  C        36.7681916360       18.0516651389        2.6309712193
  C        39.4005707252       17.0932277590        5.1712192663
  C        39.3821083661       17.1183868235        6.5924795860
  C        38.1675505385       17.2447987467        7.3380780098
  C        35.1579099141       26.6360371017        7.2925083040
  C        35.1835892458       26.6517473463        4.4836883457
  C        26.5703751322       17.8254951056        2.3279663026
  C        25.2551800823       17.8627701620        3.0351581050
  C        24.9912001840       18.8584656796        3.9875838569
  C        23.7738766173       18.8767834047        4.6624885329
  C        22.7911961706       17.8990209748        4.4088399196
  C        23.0491431518       16.9287150552        3.4236096323
  C        24.2672662906       16.9085482981        2.7469408351
  C        21.5279614783       17.8749637130        5.1821621782
  C        21.5518761626       17.8623230553        6.6037601993
  C        22.7699044910       17.7428556861        7.3458657750
  C        14.0465832060       17.8275236521        2.2947192216
  C        15.3503159475       17.8797889921        3.0210015066
  C        15.6096900447       18.8785784905        3.9725312566
  C        16.8186197595       18.8929142286        4.6657844310
  C        17.8025043103       17.9112926802        4.4297875800
  C        17.5480041667       16.9372207821        3.4458175039
  C        16.3386257333       16.9181088569        2.7543502842
  C        19.0716804672       17.8878216339        5.1983489036
  C        19.0705708725       17.8821847262        6.6207711516
  C        17.8636000742       17.7847468393        7.3822379606
  C        46.8028800470       17.2162567540        2.1615140423
  C        45.5090682746       17.1469677066        2.9014235281
  C        45.3049598317       16.1672819493        3.8855293203
  C        44.1206443827       16.1414841198        4.6173706167
  C        43.1095827961       17.0948126510        4.3870931761
  C        43.3100775594       18.0527568323        3.3747668859
  C        44.4955420028       18.0827843649        2.6441136846
  C        41.8566645630       17.1018315215        5.1773707063
  C        41.8664034900       17.1137291075        6.5994859718
  C        43.0771815227       17.2183704948        7.3540241338
  C        20.3174352300       17.8907329754        7.3288433777
  C        20.2956997129       17.8675586699        4.5157688941
  C        46.7860731224       17.2334136172       13.8808212597
  C        45.4855600137       17.1328612078       13.1586651924
  C        45.2688009755       16.1384437079       12.1927351945
  C        44.0824340728       16.1148862795       11.4634373440
  C        43.0829318240       17.0827482756       11.6827433770
  C        43.2910720247       18.0484315259       12.6852867992
  C        44.4784550668       18.0782523476       13.4098154408
  C        41.8351209298       17.1040480323       10.8878424683
  C        41.8556314477       17.1138501215        9.4665823004
  C        43.0721600093       17.2155454904        8.7208638743
  C        46.1533434696       26.6372009292        8.7211817554
  C        46.1624673143       26.6559950213       11.5308140317
  C        14.0457488039       17.8312686471       13.7033897385
  C        15.3667637397       17.9037611851       13.0132778891
  C        15.6404627333       18.9147975069       12.0799775801
  C        16.8696862689       18.9489964152       11.4253690353
  C        17.8531039222       17.9714399055       11.6783647894
  C        17.5864407476       16.9900279242       12.6502830873
  C        16.3592134551       16.9550157402       13.3081383405
  C        19.1203270371       17.9417619565       10.9095753846
  C        19.0959095171       17.9090665887        9.4883376776
  C        17.8760188307       17.7966824171        8.7482150050
  C        28.7862146914       14.0857170384        2.3924061050
  C        28.1716968252       12.9192917123        3.0865025518
  C        28.9144270016       12.1401643400        3.9869747839
  C        28.3146163542       11.0686102999        4.6435977816
  C        26.9602164880       10.7498484075        4.4180461625
  C        26.2372774521       11.5098341652        3.4817732565
  C        26.8337225706       12.5839597971        2.8262536018
  C        26.2988769808        9.6649014262        5.1786347448
  C        26.3046373371        9.6843164693        6.5989894019
  C        26.8217374612       10.7922003904        7.3428862177
  C        32.1832319947       21.2439560110        2.1377643921
  C        32.7830161818       22.4060646832        2.8594269135
  C        32.0376538071       23.0764330954        3.8415546894
  C        32.6098275406       24.1127030054        4.5730858880
  C        33.9424730151       24.5058608668        4.3431236931
  C        34.6703081623       23.8529953254        3.3304971903
  C        34.1006494243       22.8111142196        2.6007696096
  C        34.5718778967       25.5805344132        5.1436957169
  C        34.5663267589       25.5518067570        6.5652757834
  C        34.0585796101       24.4368827881        7.3043034422
  C        25.6981059199        8.6060055773        7.3191047387
  C        25.6563606188        8.6184877798        4.5054429557
  C        32.1050279362       21.2291717232       13.8717145415
  C        32.6969808959       22.3812212427       13.1298149405
  C        31.9655084105       23.0390773394       12.1289256584
  C        32.5483352909       24.0673989933       11.3920292011
  C        33.8763071038       24.4676750540       11.6381220024
  C        34.5903658215       23.8236079732       12.6666798565
  C        34.0124239550       22.7896670031       13.3986299995
  C        34.5184585389       25.5472554490       10.8537267085
  C        34.5377799588       25.5353151172        9.4320297376
  C        34.0436233921       24.4296592074        8.6708363789
  C        40.6160342711       17.1084237481        8.7468016394
  C        40.6062733252       17.1287784265       11.5568184144
  C        28.7470148657       14.0681385661       13.8174806426
  C        28.1398336486       12.9187144617       13.0802056681
  C        28.8804209586       12.2245243875       12.1114993676
  C        28.3051107567       11.1647662374       11.4142336667
  C        26.9730391970       10.7749158285       11.6591581632
  C        26.2490417139       11.4583648521       12.6538550027
  C        26.8232983892       12.5177123838       13.3540915689
  C        26.3346606208        9.6821874610       10.8867009663
  C        26.3226889655        9.6939987268        9.4648656438
  C        26.8273366894       10.7986261994        8.7087998782
  C        18.1352552284        3.1810258825        2.3222181179
  C        17.4059322387        4.2782471032        3.0207031386
  C        16.3907171271        3.9999125111        3.9487944784
  C        15.7430307311        5.0399222236        4.6122665346
  C        16.0946240515        6.3836826266        4.3722247736
  C        17.0833340840        6.6531607917        3.4077337530
  C        17.7323733393        5.6157977290        2.7426883058
  C        15.4704434297        7.4914197659        5.1352916631
  C        15.4857379198        7.4906630075        6.5570115797
  C        16.1871858755        6.4969924181        7.3102265489
  C        42.9459222728       31.8594486389        2.0780055493
  C        43.6463139068       30.7718465035        2.8219424427
  C        44.5917927271       31.0931762753        3.8080713809
  C        45.1974681178       30.0876373735        4.5557617860
  C        44.8711447513       28.7345561878        4.3408131300
  C        43.9454312632       28.4202113922        3.3274923644
  C        43.3366293784       29.4253431822        2.5794381409
  C        45.4887136922       27.6552650115        5.1440164336
  C        45.4928301112       27.6808945191        6.5657099374
  C        44.8056344316       28.6888609349        7.3123511375
  C        14.8569076336        8.5632210437        7.2693991592
  C        14.8753650209        8.5633509544        4.4567276911
  C        42.9465417602       31.9614939541       13.8038958445
  C        43.6918338169       30.8854105109       13.0905196448
  C        44.6562544202       31.1912926994       12.1180262766
  C        45.2777635053       30.1716917343       11.4003223491
  C        44.9540815997       28.8213594405       11.6380566874
  C        44.0208417955       28.5237214565       12.6490770733
  C        43.3925770873       29.5404955686       13.3612332173
  C        45.5630997253       27.7239755526       10.8527908128
  C        45.5333259996       27.7173150282        9.4314930817
  C        44.8268953501       28.7074743085        8.6785412688
  C        35.1451654315       26.6265448676        8.7271047461
  C        35.1265875015       26.6071162403       11.5367375751
  C        18.1483704933        3.2470179359       13.7015935543
  C        17.4296347671        4.3438101619       12.9925352321
  C        16.4146298675        4.0525408288       12.0687183840
  C        15.7663733011        5.0831828888       11.3933110546
  C        16.1209007217        6.4284400886       11.6161847005
  C        17.1119243630        6.7118178075       12.5738231419
  C        17.7595371915        5.6829057755       13.2536231821
  C        15.4905673167        7.5241503115       10.8436702536
  C        15.4966028127        7.5075128053        9.4225402566
  C        16.1933196958        6.5057760632        8.6758379296
  H        10.6721693394       12.4650576421       11.9002223420
  H        11.6945591495       10.5502435218       10.6583817140
  H        15.3924517100       11.1701121780       12.7657781548
  H        14.3519069774       13.0729350876       14.0108436923
  H        13.3765710123       11.6313566796        9.1963465684
  H        50.3229148309       22.7484080978       11.9818181590
  H        49.3198207061       24.6229162191       10.6758376471
  H        45.6422595411       24.1611074839       12.8585761882
  H        46.6632122543       22.2901280015       14.1668448354
  H        47.6301723694       23.5760037532        9.2410660476
  H        14.8721380169        8.5884846891       12.6035268037
  H        50.2872841913       22.7027356841        4.0653372159
  H        49.2693890107       24.5756443757        5.3653553172
  H        45.6105886378       24.1091479726        3.1513244407
  H        46.6526713293       22.2537460112        1.8370698434
  H        47.6081968443       23.5520257372        6.8019134139
  H        40.6336114926       17.0612758689        3.4150677838
  H        48.6871248330       14.0951089411       15.7949521657
  H        10.6813488674       12.4660096276        4.0977272497
  H        11.6898498480       10.5241444280        5.3014399231
  H        15.3946966805       11.1607858895        3.2123060142
  H        14.3659794030       13.0891310576        1.9970801801
  H        13.3764144408       11.6224191881        6.7582564302
  H        47.9302113211       14.2188408768        1.7160089900
  H        47.7799876973       14.3737556414       14.4902588184
  H        49.0833050119       18.5521471988        2.8722782169
  H        10.4161989260       14.1343640539        0.0039870525
  H        24.4900198756        3.0238445148       11.9209997822
  H        25.6386910638        4.8807564285       10.6980922254
  H        23.2634216447        7.7526133679       12.8451294820
  H        22.1328244365        5.8857878948       14.0693793567
  H        23.8220956549        5.7865262662        9.2734430042
  H        36.3826240776       32.1869483883       11.9556445510
  H        35.2625292225       30.3610230005       10.6733805421
  H        37.5187924777       27.4394914975       12.8815648123
  H        38.6195707909       29.2781203293       14.1719158468
  H        37.0373161962       29.4459781372        9.2624314041
  H        25.7583744874        8.6041122570       12.6528333646
  H        36.4567838025       32.2388933045        4.1173774480
  H        35.3475227302       30.4176696346        5.4111370081
  H        37.5296904855       27.4866709638        3.1405049451
  H        38.6138534538       29.3194684714        1.8344745781
  H        37.0555679264       29.4639636646        6.8240385257
  H        46.1095080572       26.5876307791        3.3906934138
  H        44.6681882591       35.1160978387       15.8088021058
  H        24.4329454081        3.0407681820        4.0941254266
  H        25.5589771308        4.8805236037        5.3495108656
  H        23.1508098798        7.7672779423        3.2599008838
  H        22.0372900269        5.9154149464        2.0040278054
  H        23.7888749929        5.7895335840        6.8351081740
  H        44.9534964973       34.3901203411        1.7001092874
  H        44.9015527588       34.2066448738       14.4855516567
  H        40.6657347685       33.2089573845        2.8581736717
  H        23.1504972084        1.9575167823        0.0111104985
  H        25.8269971400       19.6319618590       11.8839200848
  H        23.6548647126       19.6734333894       10.6540289480
  H        22.3451880991       16.2265067417       12.8681227083
  H        24.5205857547       16.2023970966       14.0965031356
  H        23.7227290900       17.6347880407        9.2422298366
  H        35.1542425194       15.4493444758       11.9783711688
  H        37.2727056616       15.4122227659       10.6620912841
  H        38.7009393067       18.8053950473       12.8876085309
  H        36.5759206690       18.8228945904       14.2076472891
  H        37.2258224501       17.3842232799        9.2386857106
  H        20.3594380798       17.9778762385       12.6641900354
  H        35.1416348994       15.4565779643        4.1139493635
  H        37.2810253828       15.3821204416        5.3997227140
  H        38.7401111063       18.7459142415        3.1495868025
  H        36.5991003181       18.7975369271        1.8580571357
  H        37.2339622509       17.3655816429        6.7964289622
  H        35.1529435836       26.6787153519        3.3961113340
  H        28.4986059857       21.0851635947       15.8737779317
  H        25.7527503026       19.6103065945        4.1818085885
  H        23.5693077558       19.6531786438        5.3965119525
  H        22.2982004838       16.1678324676        3.2208056418
  H        24.4820552589       16.1487384061        1.9992809697
  H        23.7007863652       17.6128874124        6.8019787758
  H        28.9748427585       21.7347477682        1.7628412987
  H        29.1927964663       21.7218205507       14.5606180992
  H        32.1454629248       18.6373766491        2.9265872489
  H        27.3951726443       19.0617989332        0.0706223983
  H        14.8536007742       19.6392986495        4.1536241488
  H        17.0160608898       19.6735572158        5.3973162537
  H        18.2972241445       16.1718027755        3.2540997107
  H        16.1306760004       16.1525930497        2.0106153035
  H        16.9209950538       17.6686930464        6.8552457966
  H        46.0920556949       15.4401954001        4.0710561076
  H        43.9645258255       15.3749986534        5.3733253733
  H        42.5377020348       18.7969476768        3.1918171027
  H        44.6663798289       18.8376245271        1.8800705903
  H        44.0169128204       17.3316994554        6.8211264817
  H        20.2895732091       17.9016206870        3.4277530017
  H        46.0452330871       15.3976179109       12.0158658392
  H        43.9168523911       15.3421096163       10.7159222108
  H        42.5249093863       18.8006976594       12.8610067866
  H        44.6597746406       18.8422808103       14.1617871299
  H        44.0081904036       17.3256244535        9.2608328206
  H        46.1993948168       26.6825281499       12.6182562343
  H        52.7413957325       21.0627053788        0.1998124103
  H        14.8800259946       19.6675357102       11.8840487807
  H        17.0809118118       19.7356872830       10.7042581946
  H        18.3372810058       16.2292648353       12.8536819403
  H        16.1380441399       16.1840268260       14.0421643334
  H        16.9426809910       17.6896534612        9.2927405194
  H        52.3232096473       21.6735056771       14.2888806907
  H        52.0137909117       21.7024861603        1.5008002982
  H        49.0681399871       18.6080427948       13.1987951311
  H        13.2478627192       19.0157923191       15.9722575649
  H        29.9639029805       12.3804403668        4.1448924894
  H        28.8897013465       10.4603311106        5.3386144992
  H        25.1906215541       11.2721505202        3.3031127607
  H        26.2755066052       13.1920812984        2.1183752163
  H        27.1837425344       11.6600233928        6.7997678864
  H        31.0143058342       22.7578797376        4.0257277072
  H        32.0267285280       24.6329375995        5.3298766757
  H        35.7017651737       24.1475399729        3.1479621312
  H        34.6676254429       22.2813074711        1.8386773533
  H        33.7024946120       23.5684205646        6.7576672674
  H        25.6742939894        8.6055270595        3.4170914946
  H        30.9425750341       22.7253096576       11.9343557705
  H        31.9742436983       24.5787388938       10.6223646672
  H        35.6182501364       24.1221049337       12.8622434489
  H        34.5688643186       22.2695723402       14.1749136372
  H        33.6759882526       23.5553976544        9.2004129888
  H        40.6028422765       17.0932818930       12.6445604479
  H        32.5152150537       14.1487399324        0.2441011565
  H        29.9071782092       12.5307899845       11.9239531105
  H        28.8874685210       10.6202470120       10.6740365828
  H        25.2178612452       11.1707521218       12.8485133642
  H        26.2615484170       13.0616685858       14.1098485837
  H        27.1940804837       11.6707985675        9.2422031706
  H        33.3088631913       14.2283481551       14.4592159735
  H        33.4067431384       14.3701030114        1.6183763801
  H        32.1043742333       18.4889491232       13.1487930211
  H        30.2313542253       14.1925425038        0.0760474336
  H        16.1188738685        2.9634114496        4.1355312208
  H        14.9539045365        4.8205392332        5.3282828214
  H        17.3653296042        7.6860643777        3.2141261925
  H        18.5138360400        5.8184665141        2.0142325859
  H        16.7537170429        5.7396067801        6.7767658357
  H        44.8280327141       32.1402605156        3.9822985551
  H        45.9372876108       30.3413672496        5.3117605025
  H        43.6828544544       27.3781291936        3.1572732461
  H        42.6001098803       29.1899769990        1.8146903967
  H        44.2302017363       29.4365818025        6.7740599547
  H        14.8515736978        8.5466704524        3.3685047204
  H        44.8997179687       32.2339714613       11.9264635194
  H        46.0245390371       30.4128912598       10.6469480658
  H        43.7640279688       27.4839848444       12.8407985119
  H        42.6462366577       29.3176782009       14.1198303324
  H        44.2683015112       29.4703012491        9.2131223071
  H        35.0815827000       26.6217429654       12.6240688803
  H        36.6049329922       35.1340285280        0.1857388888
  H        16.1436183405        3.0129700984       11.8988498694
  H        14.9741733295        4.8563505087       10.6830826494
  H        17.3952029347        7.7473068870       12.7509591070
  H        18.5421503614        5.8933949567       13.9786527719
  H        16.7646529881        5.7554522602        9.2142648524
  H        36.2779066437       34.4830249628       14.2678984364
  H        36.3800109529       34.2095779909        1.5050146167
  H        40.5803509972       33.2025721806       13.1483438362
  H        17.4705506341        1.9474034001       15.9689899930
  H        28.9199206771       19.3621083395        4.4116143091
  H        29.8106633978       19.6496581060       11.5433940291
  H        31.9091601871       15.7415117738       11.5561692001
  H        30.4201541292       15.5655272563        3.9894071104
  H        28.2665646258       17.7863179778        6.5660045754
  H        30.0945675128       14.2740978365        6.6969345411
  H        31.7675847751       19.8878966837        9.4378448365
  H        33.0089564748       17.0382281320        9.1730363062
  H        28.8214072114       16.7790284084        9.1945114510
  H        18.8530069463        0.8689407131        4.3403167974
  H        40.5280714777       35.2292912123       11.9469367302
  H        42.3237209668       34.4184366585       11.5855799660
  H        22.0877958920        0.6917858419        4.3568493172
  H        11.5970218325       18.7128629082        4.3874968678
  H        52.2650045693       18.4312916725       11.6722818081
  H        49.2546040605       16.4771329728       11.5796879378
  H        10.1503521413       15.7983187378        4.2978692911
  H        50.8502157132       17.6925434925       11.9490674956
  H        10.0462145650       17.3947039848        4.0569858875
  H        20.2141606754        0.0021589670        4.0472148296
  H        39.1837671562       36.1247875711       11.6814317366
 Ni        30.8987750985       17.6981789337       10.6620729616
 Ni        31.1621328512       16.0274263059        8.0809142515
 Ni        30.1356845652       18.7276368309        7.9113300999
 Ni        30.3884987786       17.7503583064        5.0805187908
  O        10.6499118168       14.3650789711       13.4807427273
  O        12.6131595837       14.6574471732       14.5787981464
  O        49.1478533373       16.8458807973       15.9846987538
  O        50.3502693126       20.9357988638       13.6429453782
  O        48.3485735309       20.5932859726       14.6608448304
  O        11.0516744805       17.0538461922       14.4955890970
  O        50.3209915624       20.8816179391        2.4120302153
  O        48.3466994939       20.5867120256        1.3323011595
  O        49.5436883122       18.2483985055        2.0733009907