     573
 i =      239, E =     -4762.8136279688
  C        11.8586467152       14.0535386745       13.7364767323
  C        12.4561543739       12.8905857241       13.0181752510
  C        11.7045548305       12.1718521121       12.0762973575
  C        12.2809303810       11.1096607929       11.3839247283
  C        13.6214011659       10.7396443235       11.6119113298
  C        14.3544474060       11.4429754826       12.5856480405
  C        13.7815536059       12.5079323410       13.2771744061
  C        14.2609821252        9.6490408007       10.8384948353
  C        14.2563816479        9.6570162944        9.4167969602
  C        13.7432553307       10.7591477727        8.6628714017
  C        49.1267399835       21.2332074334       13.8746124377
  C        48.5500156741       22.4011041073       13.1475422141
  C        49.3000994915       23.0684970123       12.1666208380
  C        48.7331905102       24.1076209457       11.4333956785
  C        47.4026282111       24.5092383458       11.6619738427
  C        46.6715887257       23.8602804804       12.6753730928
  C        47.2340349201       22.8153949995       13.4047498490
  C        46.7724435293       25.5869537063       10.8646851755
  C        46.7615466005       25.5574024222        9.4429199914
  C        47.2615370564       24.4423447003        8.6994097240
  C        14.8603800375        8.5707156752        8.7035263117
  C        14.8917007122        8.5970468795       11.5151331389
  C        49.1131230193       21.2034442728        2.1504817389
  C        48.5277744063       22.3647658718        2.8776103661
  C        49.2671170135       23.0256537758        3.8703409923
  C        48.6908091175       24.0602081634        4.6018032473
  C        47.3603069325       24.4568184852        4.3637560840
  C        46.6397643613       23.8117458181        3.3404269484
  C        47.2132939996       22.7758249079        2.6086465764
  C        46.7219080408       25.5318145468        5.1547794082
  C        46.7337941514       25.5282488441        6.5764782999
  C        47.2492478687       24.4290434573        7.3328573990
  C        40.6216627504       17.0952969437        7.3171895970
  C        40.6333138022       17.1031300346        4.5075606470
  C        11.8829123770       14.0865207898        2.2905755065
  C        12.4721900508       12.9106485576        2.9947407834
  C        11.7147557703       12.1776364051        3.9210655762
  C        12.2813242858       11.0951832185        4.5895017302
  C        13.6200484424       10.7212560372        4.3574447078
  C        14.3579293678       11.4366030371        3.3964041542
  C        13.7925097493       12.5177670254        2.7237065522
  C        14.2537178733        9.6245937703        5.1279065673
  C        14.2525480709        9.6446442263        6.5497436297
  C        13.7426961874       10.7535997068        7.2968254121
  C        22.5108233309        3.2439476900       13.7481756747
  C        23.2234937432        4.3498142464       13.0481882528
  C        24.2211329870        4.0710028199       12.1025081022
  C        24.8457586457        5.1115100532       11.4199420497
  C        24.4878929645        6.4524044103       11.6631694484
  C        23.5184862233        6.7228415948       12.6459757027
  C        22.8893668572        5.6841810942       13.3269763850
  C        25.0912447254        7.5594928252       10.8873430457
  C        25.0660905351        7.5507938788        9.4659370560
  C        24.3657448784        6.5500958355        8.7200246549
  C        38.3020208425       31.9305348774       13.8448409313
  C        37.5705843751       30.8419007468       13.1369746354
  C        36.6083386415       31.1467813953       12.1621970121
  C        35.9892466572       30.1270950232       11.4450354705
  C        36.3183092288       28.7779561600       11.6808828530
  C        37.2506019078       28.4804725167       12.6925491348
  C        37.8735052182       29.4988484927       13.4089223665
  C        35.7150417577       27.6874117564       10.8834878138
  C        35.7429911725       27.7049921920        9.4622437405
  C        36.4476626713       28.7085500474        8.7255043391
  C        25.6895570708        8.6202960152        8.7459735636
  C        25.6845659039        8.6362968815       11.5580679004
  C        38.3288227622       31.9624305522        2.1617455899
  C        37.6067128932       30.8907096081        2.9047530558
  C        36.6768745821       31.2019357359        3.9086733548
  C        36.0648652120       30.1853260345        4.6390919506
  C        36.3684746196       28.8320390282        4.3892232960
  C        37.2764214024       28.5307731479        3.3555639409
  C        37.8904986318       29.5439025242        2.6263018693
  C        35.7575900199       27.7347054113        5.1734532896
  C        35.7646237711       27.7292945815        6.5954816558
  C        36.4577361086       28.7203755864        7.3590297439
  C        46.1357423705       26.6208510106        7.2866236041
  C        46.0878538101       26.5801105866        4.4787252924
  C        22.4603811904        3.2552960079        2.2623827665
  C        23.1539193801        4.3638735363        2.9854156140
  C        24.1560716606        4.0775623853        3.9259633140
  C        24.7834587213        5.1076430736        4.6223266835
  C        24.4285899395        6.4532175594        4.4002750761
  C        23.4495947667        6.7328556887        3.4281480654
  C        22.8175161644        5.7029992837        2.7323739941
  C        25.0585107065        7.5512586509        5.1746764864
  C        25.0499330593        7.5458090566        6.5973259742
  C        24.3558561780        6.5490523971        7.3534176122
  C        26.6169230398       17.8580401710       13.7769497475
  C        25.3125374228       17.8990933788       13.0482471400
  C        25.0461727340       18.9000303244       12.1003432581
  C        23.8333385496       18.9160520358       11.4141127646
  C        22.8491942010       17.9359069737       11.6552997956
  C        23.1114616181       16.9574174358       12.6328342829
  C        24.3267702385       16.9348564916       13.3154737946
  C        21.5755837000       17.9208194131       10.8918362615
  C        21.5764273112       17.9026591038        9.4694276235
  C        22.7824607723       17.7822566121        8.7091411920
  C        34.4393617516       17.1934349665       13.9189649442
  C        35.7322887473       17.1444471265       13.1739370428
  C        35.9354994346       16.1752158532       12.1791101234
  C        37.1147363157       16.1625153240       11.4394400184
  C        38.1234014232       17.1172240014       11.6746515957
  C        37.9228517809       18.0666960352       12.6947715812
  C        36.7405418208       18.0853325504       13.4314687124
  C        39.3763384107       17.1243854993       10.8853374294
  C        39.3692067895       17.1301025729        9.4633308878
  C        38.1607884001       17.2496706201        8.7072109771
  C        20.3300878865       17.9215763797        8.7606931233
  C        20.3509284404       17.9222543478       11.5742656372
  C        34.4414271663       17.2372934007        2.1985464102
  C        35.7438846213       17.1348841846        2.9174333030
  C        35.9457289287       16.1608281310        3.9065809097
  C        37.1363331356       16.1304839360        4.6285686865
  C        38.1537186294       17.0732038455        4.3817116224
  C        37.9581865532       18.0189535255        3.3577070191
  C        36.7671420378       18.0544423538        2.6389773167
  C        39.4028991206       17.0912879643        5.1748996807
  C        39.3826975745       17.1132821484        6.5963450700
  C        38.1672236340       17.2400119005        7.3405320556
  C        35.1325655592       26.6506727083        7.2991188583
  C        35.1680717820       26.6640047660        4.4899794690
  C        26.5716109960       17.8286207045        2.3295010718
  C        25.2556846259       17.8743824511        3.0340462016
  C        24.9894304521       18.8816087758        3.9738718417
  C        23.7721406950       18.9057969543        4.6489120580
  C        22.7914509952       17.9231753067        4.4063903302
  C        23.0515337616       16.9414075126        3.4332799079
  C        24.2699291635       16.9147294572        2.7573071216
  C        21.5279503648       17.9035065095        5.1796633980
  C        21.5517625808       17.8923895928        6.6010803407
  C        22.7703164236       17.7773088264        7.3428850367
  C        14.0463452095       17.8288570493        2.2937029701
  C        15.3508863344       17.8856990489        3.0188212630
  C        15.6075682566       18.8882418555        3.9670474511
  C        16.8166336005       18.9084398921        4.6598025651
  C        17.8029546106       17.9289271338        4.4262283749
  C        17.5511119087       16.9507490690        3.4457592011
  C        16.3414578245       16.9258693500        2.7547579031
  C        19.0719325061       17.9108842536        5.1951478927
  C        19.0704041152       17.9053639093        6.6175535274
  C        17.8632439908       17.8053892421        7.3784678420
  C        46.8028218361       17.2165083252        2.1625974874
  C        45.5102461581       17.1472249975        2.9043324870
  C        45.3077826184       16.1672740299        3.8886878377
  C        44.1243610609       16.1403351393        4.6219427684
  C        43.1121925971       17.0930377584        4.3934895146
  C        43.3114205054       18.0517094633        3.3814275216
  C        44.4958362323       18.0827290602        2.6490674437
  C        41.8590445302       17.0982523775        5.1835435084
  C        41.8671879445       17.1055287687        6.6057997881
  C        43.0771834031       17.2062841101        7.3620914882
  C        20.3170535555       17.9154018116        7.3259361303
  C        20.2960935508       17.8926572526        4.5129079290
  C        46.7851443727       17.2323038371       13.8818788591
  C        45.4833418762       17.1287582536       13.1629563980
  C        45.2649806783       16.1308880675       12.2008522221
  C        44.0775510756       16.1048087205       11.4733986414
  C        43.0784290497       17.0737372941       11.6901996784
  C        43.2877665083       18.0422271638       12.6898530167
  C        44.4761292503       18.0744905552       13.4127137671
  C        41.8310212100       17.0945433484       10.8945445360
  C        41.8530190516       17.1025572843        9.4732778036
  C        43.0705784597       17.2016572784        8.7288812134
  C        46.1535555136       26.6372964480        8.7211707066
  C        46.1623772944       26.6560117889       11.5308118886
  C        14.0449526637       17.8304822254       13.7030281209
  C        15.3656102748       17.9015497630       13.0111859023
  C        15.6417379260       18.9168708494       12.0833863975
  C        16.8707970174       18.9510466844       11.4284102967
  C        17.8511749017       17.9689960383       11.6755052957
  C        17.5817425122       16.9821938430       12.6411206591
  C        16.3547979848       16.9476037739       13.2996719975
  C        19.1186379032       17.9421026838       10.9069567527
  C        19.0949575567       17.9199593562        9.4854584236
  C        17.8751934722       17.8119265438        8.7444941948
  C        28.8070054174       14.0909822176        2.4011499388
  C        28.1937610859       12.9162565231        3.0854654177
  C        28.9164911095       12.1739429608        4.0310092507
  C        28.3166682291       11.0987366622        4.6813297317
  C        26.9800486799       10.7427318966        4.4104746252
  C        26.2792340224       11.4649884210        3.4280502441
  C        26.8769484515       12.5402175924        2.7756941071
  C        26.3104299217        9.6636662023        5.1716680952
  C        26.2973071883        9.6909194628        6.5926355203
  C        26.8018027988       10.8036560502        7.3379204244
  C        32.1780370445       21.2443956934        2.1541591141
  C        32.7699243221       22.4122826336        2.8702956214
  C        32.0186968009       23.0934438969        3.8404335636
  C        32.5874110222       24.1335664637        4.5687858073
  C        33.9232179924       24.5204433173        4.3476970461
  C        34.6568884464       23.8588380515        3.3450030276
  C        34.0904963004       22.8131663248        2.6185890215
  C        34.5506061860       25.5956790204        5.1491758655
  C        34.5397228112       25.5676293147        6.5709116207
  C        34.0275235860       24.4537643629        7.3086460383
  C        25.6862436909        8.6139726059        7.3115245066
  C        25.6740811816        8.6129913615        4.4983080968
  C        32.1049503506       21.2302340913       13.8838385611
  C        32.6951332196       22.3828804612       13.1415046866
  C        31.9553973456       23.0461681845       12.1503023069
  C        32.5334862058       24.0749881100       11.4105295472
  C        33.8647466336       24.4710136893       11.6451484664
  C        34.5872685012       23.8216587285       12.6644415264
  C        34.0141394712       22.7865402340       13.3987026698
  C        34.5021522200       25.5529473016       10.8597071553
  C        34.5138102235       25.5463617316        9.4377178210
  C        34.0141461780       24.4439702611        8.6753284091
  C        40.6142166799       17.0990874083        8.7519954621
  C        40.6014260670       17.1230146092       11.5621051502
  C        28.7335928007       14.0617670216       13.8215778334
  C        28.1171482905       12.9240751609       13.0772281924
  C        28.8548306323       12.2216760649       12.1119445236
  C        28.2722353374       11.1683508652       11.4116971563
  C        26.9363585368       10.7899110814       11.6528165617
  C        26.2148100544       11.4803913696       12.6445755844
  C        26.7955131545       12.5354547040       13.3457707176
  C        26.2964903429        9.6983943286       10.8803393961
  C        26.2917073224        9.7087852136        9.4586469757
  C        26.7970495483       10.8136009829        8.7037252914
  C        18.1353850817        3.1809442994        2.3222915791
  C        17.4060481233        4.2782213691        3.0209155929
  C        16.3903706993        3.9998504775        3.9484582308
  C        15.7426436943        5.0398366854        4.6119588851
  C        16.0945080416        6.3835533621        4.3722294847
  C        17.0838188178        6.6530793762        3.4083987365
  C        17.7329084161        5.6157352681        2.7433449228
  C        15.4702005766        7.4912775310        5.1352503198
  C        15.4855862629        7.4906752768        6.5569601726
  C        16.1871892975        6.4970879475        7.3101236375
  C        42.9458835511       31.8594561243        2.0780014008
  C        43.6462365004       30.7718052392        2.8219819278
  C        44.5919187173       31.0931366550        3.8079053759
  C        45.1976223868       30.0875869234        4.5555646238
  C        44.8710649179       28.7345329340        4.3408282759
  C        43.9450720377       28.4201943852        3.3277717586
  C        43.3362490921       29.4253323242        2.5797295083
  C        45.4886800002       27.6552421028        5.1440123718
  C        45.4930020395       27.6809592742        6.5657050571
  C        44.8058749356       28.6889803747        7.3123251046
  C        14.8565990942        8.5631672726        7.2693044968
  C        14.8748448289        8.5629892790        4.4566457767
  C        42.9464370060       31.9615249524       13.8038777564
  C        43.6916432537       30.8854094928       13.0903624761
  C        44.6563838072       31.1913189089       12.1182058623
  C        45.2779103173       30.1717292688       11.4004899029
  C        44.9540180733       28.8214142432       11.6379969392
  C        44.0203336664       28.5237491244       12.6485847925
  C        43.3920673055       29.5405147581       13.3607636413
  C        45.5631239972       27.7240339261       10.8527639510
  C        45.5335091352       27.7174060435        9.4314633976
  C        44.8271680278       28.7076221726        8.6785093350
  C        35.1205411781       26.6389828249        8.7338681147
  C        35.1139475506       26.6100907171       11.5436770136
  C        18.1485341430        3.2469800872       13.7015004012
  C        17.4299209819        4.3438561226       12.9921981261
  C        16.4147505370        4.0525789621       12.0686061545
  C        15.7664712826        5.0832215243       11.3931900264
  C        16.1210748305        6.4284549518       11.6159810132
  C        17.1124009683        6.7118281127       12.5732936108
  C        17.7600436546        5.6829111709       13.2530860487
  C        15.4906066477        7.5241681317       10.8435354840
  C        15.4966128504        7.5076106349        9.4224004908
  C        16.1934211159        6.5059192409        8.6757278431
  H        10.6724949983       12.4661402443       11.8991254671
  H        11.6946988050       10.5513245386       10.6572273093
  H        15.3913850954       11.1681585097       12.7675829241
  H        14.3509049134       13.0709557940       14.0128488209
  H        13.3762030768       11.6312632974        9.1961669519
  H        50.3228210524       22.7484876103       11.9819181112
  H        49.3197024858       24.6229548526       10.6758869309
  H        45.6420648511       24.1609917366       12.8584682537
  H        46.6629335107       22.2901088815       14.1667448577
  H        47.6300135128       23.5759276242        9.2410721749
  H        14.8719154189        8.5882108503       12.6034380733
  H        50.2872243268       22.7029336530        4.0651287730
  H        49.2692435981       24.5757920913        5.3651864634
  H        45.6102652883       24.1087859551        3.1515555410
  H        46.6523119725       22.2534879329        1.8373177904
  H        47.6079977469       23.5519074389        6.8019695063
  H        40.6373206379       17.0640169694        3.4199150935
  H        48.6870148061       14.0949963938       15.7949166478
  H        10.6813322045       12.4668153920        4.0985754122
  H        11.6895790035       10.5248834250        5.3023129854
  H        15.3932775524       11.1585271655        3.2102893080
  H        14.3647563708       13.0869803768        1.9949842028
  H        13.3758456772       11.6221990190        6.7581795749
  H        47.9301266117       14.2184527242        1.7159257611
  H        47.7799378007       14.3735167895       14.4900895166
  H        49.0827448518       18.5520732595        2.8721548509
  H        10.4158536857       14.1343636246        0.0038394132
  H        24.4844572164        3.0328059168       11.9128242449
  H        25.6197232871        4.8957588552       10.6865687438
  H        23.2351533636        7.7553211387       12.8396287232
  H        22.1185226151        5.8827702876       14.0675525843
  H        23.8045358405        5.7933846551        9.2604399977
  H        36.3707879901       32.1901712054       11.9688413468
  H        35.2426450047       30.3661988985       10.6909357714
  H        37.5115736926       27.4411990643       12.8813055509
  H        38.6190832723       29.2777679954       14.1689743729
  H        37.0127965471       29.4580789356        9.2717931394
  H        25.7170756785        8.6208337131       12.6459772740
  H        36.4545367196       32.2466880768        4.1137021642
  H        35.3381203305       30.4321320985        5.4098986812
  H        37.5227339002       27.4899568035        3.1561480528
  H        38.6136984509       29.3162285195        1.8470024485
  H        37.0316815806       29.4785333870        6.8340655747
  H        46.1090708186       26.5874204790        3.3906861249
  H        44.6681772956       35.1161257419       15.8088263681
  H        24.4338945870        3.0392916301        4.0926801468
  H        25.5642646824        4.8791167190        5.3446024035
  H        23.1644281658        7.7673891244        3.2481281227
  H        22.0457115936        5.9154689522        1.9962016601
  H        23.7864194926        5.7921308311        6.8218784304
  H        44.9535410641       34.3900589696        1.7000694544
  H        44.9014116997       34.2066346992       14.4855474889
  H        40.6657537415       33.2088439487        2.8581563920
  H        23.1503738266        1.9576861922        0.0102992613
  H        25.7982957511       19.6643853480       11.9183008469
  H        23.6321433241       19.6983651281       10.6853254278
  H        22.3634016792       16.1916628655       12.8279496113
  H        24.5397936423       16.1661986201       14.0547655487
  H        23.7233855241       17.6634753210        9.2385269838
  H        35.1507591463       15.4452002323       11.9949257801
  H        37.2711164760       15.4036407673       10.6758934468
  H        38.6930712937       18.8124174412       12.8806811428
  H        36.5693019909       18.8335475850       14.2019975555
  H        37.2230338514       17.3814436240        9.2394517852
  H        20.3574992791       17.9605640304       12.6621965383
  H        35.1510719957       15.4463109560        4.1085452264
  H        37.2908694985       15.3724759521        5.3933123063
  H        38.7366984168       18.7530920650        3.1608639972
  H        36.5959196905       18.8043014383        1.8704958351
  H        37.2341302357       17.3641869961        6.7985174384
  H        35.1430266195       26.6888149860        3.4021997004
  H        28.5074581663       21.0891626345       15.9715286317
  H        25.7494480768       19.6383076777        4.1554225295
  H        23.5650919849       19.6908694706        5.3730278192
  H        22.3023021509       16.1763096828        3.2402634981
  H        24.4870976308       16.1447403554        2.0208352643
  H        23.7017009792       17.6544047115        6.7982408047
  H        29.0143545032       21.7195355391        1.7596331597
  H        29.1491466331       21.7485770894       14.6079004689
  H        32.0582297326       18.5712273941        3.0155105284
  H        27.4032364331       19.0830115884        0.0982690537
  H        14.8491058119       19.6471268223        4.1458443981
  H        17.0120578187       19.6919851931        5.3887762125
  H        18.3023370690       16.1866703568        3.2565439613
  H        16.1351732604       16.1573620085        2.0136045828
  H        16.9208292672       17.6908608831        6.8507985071
  H        46.0952856992       15.4403072131        4.0728890244
  H        43.9695901739       15.3729737326        5.3772748652
  H        42.5383990176       18.7955141309        3.1996331928
  H        44.6648248339       18.8379279289        1.8849595645
  H        44.0178437551       17.3187513670        6.8306625997
  H        20.2900626058       17.9238880696        3.4248191581
  H        46.0412108329       15.3896001206       12.0250523872
  H        43.9111464195       15.3296802681       10.7284986951
  H        42.5218621119       18.7951035920       12.8640536513
  H        44.6581289056       18.8409809794       14.1620101887
  H        44.0063062721       17.3093673926        9.2698019948
  H        46.1990698347       26.6825043431       12.6182630616
  H        52.7411061395       21.0626200674        0.1997876069
  H        14.8834210084       19.6730025003       11.8922762933
  H        17.0842275148       19.7414382540       10.7119972693
  H        18.3298929709       16.2174101689       12.8393284535
  H        16.1313161237       16.1731135307       14.0293243055
  H        16.9417264127       17.7025350765        9.2883406615
  H        52.3223248883       21.6732145384       14.2891971487
  H        52.0131869119       21.7020640020        1.5007743257
  H        49.0672954443       18.6079017089       13.1990716526
  H        13.2473810367       19.0163755516       15.9719583746
  H        29.9457230196       12.4549435326        4.2423073999
  H        28.8780946209       10.5217131784        5.4129541211
  H        25.2464835714       11.1993488945        3.2117636455
  H        26.3339690502       13.1197377830        2.0331211754
  H        27.1674770923       11.6710609008        6.7967913066
  H        30.9926688815       22.7818983280        4.0196445264
  H        32.0001737568       24.6601816451        5.3178615064
  H        35.6907876243       24.1486587968        3.1689743000
  H        34.6628350081       22.2764188806        1.8655172918
  H        33.6697154281       23.5856920131        6.7623507299
  H        25.7043486196        8.5933433250        3.4103240612
  H        30.9295159852       22.7345789934       11.9673924672
  H        31.9538004540       24.5899698681       10.6475451793
  H        35.6178884189       24.1167280142       12.8504913303
  H        34.5773715279       22.2620931353       14.1671075644
  H        33.6461096615       23.5681263699        9.2022953415
  H        40.5966706448       17.0898755934       12.6499307086
  H        32.5184635530       14.1406779859        0.2775549744
  H        29.8875819632       12.5104122495       11.9307927944
  H        28.8518950797       10.6189687871       10.6730649672
  H        25.1811038968       11.2004584443       12.8370153500
  H        26.2362337737       13.0835143783       14.1004275890
  H        27.1577702409       11.6889434907        9.2360464537
  H        33.2960581036       14.1984681402       14.4331072584
  H        33.4090502438       14.4039843360        1.6189749149
  H        32.2119227401       18.5624252053       13.2416317122
  H        30.2213094075       14.1863073856        0.1401645019
  H        16.1183636838        2.9633366938        4.1348987895
  H        14.9532090498        4.8204502455        5.3276355996
  H        17.3661842653        7.6859605521        3.2152233302
  H        18.5148783254        5.8183413602        2.0154121843
  H        16.7537329429        5.7397433489        6.7766150061
  H        44.8282837497       32.1402145772        3.9819977448
  H        45.9375725705       30.3413222678        5.3114314266
  H        43.6821891255       27.3781475306        3.1578080171
  H        42.5994860443       29.1899779694        1.8152105779
  H        44.2304439496       29.4366882192        6.7740182143
  H        14.8509738823        8.5461175775        3.3684293379
  H        44.9000045270       32.2339967109       11.9268416759
  H        46.0249161538       30.4129416687       10.6473477427
  H        43.7632045058       27.4840354564       12.8400119245
  H        42.6454187590       29.3176922649       14.1190554836
  H        44.2685717038       29.4704408534        9.2130992866
  H        35.0748978639       26.6201881820       12.6312851198
  H        36.6050749126       35.1340841897        0.1856982581
  H        16.1437335213        3.0129904127       11.8988325502
  H        14.9741730790        4.8563723497       10.6830747268
  H        17.3958406133        7.7473020866       12.7502509210
  H        18.5428685073        5.8933182647       13.9779189628
  H        16.7648271224        5.7556791273        9.2141967425
  H        36.2785774505       34.4824813431       14.2682262302
  H        36.3808323886       34.2091914234        1.5047609784
  H        40.5799635574       33.2022671578       13.1486556583
  H        17.4705438728        1.9472139852       15.9690595117
  H        29.3268825374       19.5971539915        4.6237276567
  H        28.7994878700       18.8738120001       11.8920615231
  H        30.6607294407       15.4233336787       11.9234710923
  H        31.0883621147       15.6345212237        4.5529072808
  H        28.2142829491       18.2795909136        6.7031939273
  H        29.1714848390       15.5675828890        6.3765513647
  H        30.5193108367       19.7304799333       10.3122322394
  H        29.0453113077       16.4584436495        9.8302790060
  H        18.8538982118        0.8691724963        4.3404664160
  H        40.5279409798       35.2291083250       11.9469823438
  H        42.3237434241       34.4186643313       11.5855328992
  H        22.0878684005        0.6922935806        4.3565591950
  H        11.5969958430       18.7128081221        4.3874770384
  H        52.2649263308       18.4311419018       11.6723154267
  H        49.2550682941       16.4771204454       11.5795592742
  H        10.1502275660       15.7982297230        4.2977952316
  H        50.8500136414       17.6924300946       11.9491823577
  H        10.0459898681       17.3945638420        4.0570609510
  H        20.2151523418        0.0023770892        4.0470727768
  H        39.1836375278       36.1243895032       11.6811546016
 Ni        30.6491627623       17.5981599060       11.1547540971
 Ni        30.7311659614       16.3882704795        8.1618686429
 Ni        30.0115682336       18.6979499202        8.2402330949
 Ni        30.0583462093       17.4956900939        5.2461722412
  O        10.6499128926       14.3651497362       13.4807160188
  O        12.6131525402       14.6575308163       14.5787940391
  O        49.1478765571       16.8459706463       15.9846795008
  O        50.3502430800       20.9358254665       13.6430283571
  O        48.3485314944       20.5932806286       14.6608649983
  O        11.0514739238       17.0539844222       14.4955306741
  O        50.3209965163       20.8816568092        2.4119100092
  O        48.3467462156       20.5867020247        1.3322262416
  O        49.5435927626       18.2484330378        2.0733893218
  O        12.3589504348       18.6245822215        0.0048291045