     574
 i =      206, E =     -4778.8760269730
  C        11.8588270062       14.0534813662       13.7364934715
  C        12.4563551792       12.8906293854       13.0181202536
  C        11.7044756026       12.1713129049       12.0769044910
  C        12.2808799784       11.1091346984       11.3845497439
  C        13.6216446447       10.7397919025       11.6118788142
  C        14.3550873001       11.4438708309       12.5847509515
  C        13.7821712502       12.5088398273       13.2762493796
  C        14.2611079633        9.6490521416       10.8385294120
  C        14.2563249312        9.6569023557        9.4168378001
  C        13.7431642855       10.7590548251        8.6629711214
  C        49.1270194669       21.2331722286       13.8745797073
  C        48.5502677651       22.4012554472       13.1475450047
  C        49.3002451331       23.0684374999       12.1664391179
  C        48.7333253926       24.1076066636       11.4332452844
  C        47.4028623056       24.5093807971       11.6620152088
  C        46.6720052005       23.8606904478       12.6757086408
  C        47.2344414073       22.8157657701       13.4050438730
  C        46.7725355240       25.5870313948       10.8647450235
  C        46.7613145659       25.5573314815        9.4429839405
  C        47.2612192990       24.4422144663        8.6995018812
  C        14.8602621543        8.5705664067        8.7035796954
  C        14.8918947680        8.5971370529       11.5151968152
  C        49.1133143481       21.2033885130        2.1504642342
  C        48.5278761410       22.3647879049        2.8777136705
  C        49.2670703121       23.0254100938        3.8706931458
  C        48.6907516828       24.0599821435        4.6021684850
  C        47.3603938175       24.4568481526        4.3638464630
  C        46.6400316621       23.8120557227        3.3402203132
  C        47.2135786839       22.7761409173        2.6084364903
  C        46.7219102506       25.5318166579        5.1548568197
  C        46.7334591339       25.5280989354        6.5765635462
  C        47.2489241020       24.4289000009        7.3329492110
  C        40.6335362471       17.1291938204        7.3266070084
  C        40.6543775406       17.1608816538        4.5175447778
  C        11.8831834406       14.0866223122        2.2906762568
  C        12.4726313356       12.9109944791        2.9950650963
  C        11.7149323987       12.1773381706        3.9206654416
  C        12.2815917059       11.0949041679        4.5890488342
  C        13.6206365964       10.7217157838        4.3576764112
  C        14.3588862175       11.4378539279        3.3975320673
  C        13.7933864705       12.5190079148        2.7248673223
  C        14.2541643141        9.6248668226        5.1280199785
  C        14.2526732992        9.6446726195        6.5498534013
  C        13.7427118660       10.7535786048        7.2969277062
  C        22.5126374421        3.2446569337       13.7483467665
  C        23.2286651779        4.3497302268       13.0500166476
  C        24.2258613232        4.0692678758       12.1041209443
  C        24.8540916218        5.1085264327       11.4227697937
  C        24.5009808516        6.4505858011       11.6670571977
  C        23.5323416911        6.7225788546       12.6503675659
  C        22.8994520150        5.6851260530       13.3301671265
  C        25.1060484520        7.5567207097       10.8902474688
  C        25.0751264395        7.5491473734        9.4687874601
  C        24.3716049465        6.5494044061        8.7244672667
  C        38.3040025650       31.9296743890       13.8433038923
  C        37.5775293884       30.8391648399       13.1317243111
  C        36.6149623336       31.1413576951       12.1565541067
  C        36.0007225396       30.1200368534       11.4371759220
  C        36.3347437788       28.7718307845       11.6716071115
  C        37.2684841463       28.4768766131       12.6826044067
  C        37.8864757541       29.4969346592       13.4010195411
  C        35.7325381756       27.6801290164       10.8744905872
  C        35.7559763904       27.6992944928        9.4531262822
  C        36.4597400796       28.7028609554        8.7154100049
  C        25.6955156372        8.6193027378        8.7469680170
  C        25.7042570556        8.6322511014       11.5591361879
  C        38.3285707309       31.9631142886        2.1601600991
  C        37.6050538403       30.8904884719        2.9006088067
  C        36.6751961979       31.2006340912        3.9045802250
  C        36.0631869455       30.1828458272        4.6332068651
  C        36.3673753487       28.8303262347        4.3808252118
  C        37.2746753012       28.5300355657        3.3465826728
  C        37.8887299121       29.5443890814        2.6191857608
  C        35.7582029384       27.7323703940        5.1648993526
  C        35.7693890690       27.7259762285        6.5866401704
  C        36.4660036541       28.7155935073        7.3489479796
  C        46.1354175256       26.6207239228        7.2866954856
  C        46.0880449535       26.5802267819        4.4788003340
  C        22.4597229144        3.2554722056        2.2630147622
  C        23.1513870535        4.3640709744        2.9870960822
  C        24.1526672277        4.0782982205        3.9287790486
  C        24.7785805572        5.1087413006        4.6258260021
  C        24.4231653472        6.4541571679        4.4034002248
  C        23.4448493760        6.7331818187        3.4303511830
  C        22.8141930041        5.7030177494        2.7338874662
  C        25.0529736966        7.5525994577        5.1770900633
  C        25.0484226234        7.5463776781        6.5997806095
  C        24.3570852751        6.5491880621        7.3578603105
  C        26.6181616609       17.8566532345       13.7795233779
  C        25.3116070563       17.9022169770       13.0550868109
  C        25.0656142312       18.8827404195       12.0811991952
  C        23.8528759180       18.9034869805       11.3947863186
  C        22.8515442528       17.9463371788       11.6581488213
  C        23.0957336694       16.9882503444       12.6604155300
  C        24.3094356936       16.9624347089       13.3456361312
  C        21.5787890677       17.9298231702       10.8934171646
  C        21.5777590068       17.8993915279        9.4708052641
  C        22.7820008807       17.7659984077        8.7096327480
  C        34.4372596630       17.1960388569       13.9166340132
  C        35.7300096482       17.1476377791       13.1710226934
  C        35.9303592744       16.1859266560       12.1683554730
  C        37.1104022943       16.1744982835       11.4300387499
  C        38.1222087751       17.1234614080       11.6747989026
  C        37.9241914196       18.0653631487       12.7021916619
  C        36.7412405447       18.0823904230       13.4376251820
  C        39.3768019398       17.1316808809       10.8895219121
  C        39.3740111148       17.1477106823        9.4680111422
  C        38.1681886407       17.2735825096        8.7085562484
  C        20.3306545571       17.9187943386        8.7629992056
  C        20.3537864638       17.9384153954       11.5758605719
  C        34.4733562855       17.2463008356        2.1856075112
  C        35.7770951534       17.1725573999        2.9091722002
  C        35.9902564796       16.1877092593        3.8850945479
  C        37.1763485017       16.1679856723        4.6133895631
  C        38.1766838126       17.1324911043        4.3847145649
  C        37.9695520745       18.0928066694        3.3773109210
  C        36.7813429263       18.1173919086        2.6518617729
  C        39.4229434437       17.1487061906        5.1808276395
  C        39.3977642874       17.1564582332        6.6016397516
  C        38.1792721414       17.2754976080        7.3419681357
  C        35.1374477136       26.6479364292        7.2906410696
  C        35.1671302835       26.6623736434        4.4818485066
  C        26.5676539170       17.8257282032        2.3304180793
  C        25.2512496901       17.8717384975        3.0331691691
  C        24.9872280410       18.8729208517        3.9798743171
  C        23.7703126813       18.8942842911        4.6553634923
  C        22.7880826525       17.9148455327        4.4066946016
  C        23.0456494691       16.9396972538        3.4262420795
  C        24.2636927309       16.9157327540        2.7498097148
  C        21.5254770535       17.8927354878        5.1809276605
  C        21.5502917956       17.8794954478        6.6024015844
  C        22.7686612005       17.7570892437        7.3433139259
  C        14.0463425665       17.8283887528        2.2943265948
  C        15.3497269560       17.8836999575        3.0202934824
  C        15.6057588865       18.8839606961        3.9712036837
  C        16.8142305929       18.9022984164        4.6648451597
  C        17.8007938681       17.9232979335        4.4297112126
  C        17.5495188431       16.9476196858        3.4465020178
  C        16.3405519547       16.9244880569        2.7545146113
  C        19.0696901749       17.9036548051        5.1983129504
  C        19.0690981982       17.8989433284        6.6207146996
  C        17.8624996078       17.8011203803        7.3826667939
  C        46.8067726467       17.2193277252        2.1642505368
  C        45.5186081674       17.1600477546        2.9123558949
  C        45.3141388967       16.1842762328        3.8999347703
  C        44.1340226775       16.1689763366        4.6383279723
  C        43.1297719374       17.1297552614        4.4102942285
  C        43.3317930038       18.0856003727        3.3965850837
  C        44.5125207296       18.1047212464        2.6592550005
  C        41.8770955951       17.1428259850        5.1982650030
  C        41.8812852561       17.1405693360        6.6199471582
  C        43.0894354631       17.2322742070        7.3802344646
  C        20.3162826595       17.9075174672        7.3282142008
  C        20.2932053713       17.8843770359        4.5150515136
  C        46.7855670228       17.2306945305       13.8852797670
  C        45.4811699225       17.1240925162       13.1721163825
  C        45.2617172677       16.1261622068       12.2106904440
  C        44.0733116093       16.1007633740       11.4850847480
  C        43.0755565269       17.0701225401       11.7046182420
  C        43.2846294097       18.0367360495       12.7057924691
  C        44.4742471204       18.0686655126       13.4261541162
  C        41.8305697611       17.0964051274       10.9063617426
  C        41.8576363567       17.1155555515        9.4856579479
  C        43.0782817688       17.2177806666        8.7466486789
  C        46.1532084635       26.6371719314        8.7212473571
  C        46.1627205742       26.6562177710       11.5308832232
  C        14.0462603795       17.8321055246       13.7037567997
  C        15.3675582779       17.9070255447       13.0143657445
  C        15.6402176032       18.9200797538       12.0828534691
  C        16.8694011184       18.9569168719       11.4282927207
  C        17.8540067341       17.9799784653       11.6792584427
  C        17.5884314725       16.9966467169       12.6496492971
  C        16.3612483882       16.9590603618       13.3075977207
  C        19.1209483100       17.9526492500       10.9096978161
  C        19.0958627315       17.9226835663        9.4883522144
  C        17.8756283501       17.8118022508        8.7486405975
  C        28.8045330450       14.0868682165        2.3930065764
  C        28.1881103919       12.9147631444        3.0801126964
  C        28.9103318117       12.1724707423        4.0259567372
  C        28.3092204130       11.0991566295        4.6781765513
  C        26.9719369738       10.7448764060        4.4085985970
  C        26.2711729192       11.4675155845        3.4264874808
  C        26.8702593397       12.5411325558        2.7723566579
  C        26.3030067212        9.6661718458        5.1710646421
  C        26.2934802349        9.6927078237        6.5920619025
  C        26.7980605428       10.8062234081        7.3360924390
  C        32.1762467167       21.2410195831        2.1471930578
  C        32.7717123167       22.4084543615        2.8649435221
  C        32.0187459662       23.0919826818        3.8319530142
  C        32.5867179238       24.1331945037        4.5596060579
  C        33.9235372860       24.5177769620        4.3410584921
  C        34.6596320228       23.8526932405        3.3426256460
  C        34.0934764154       22.8063853517        2.6164494203
  C        34.5503472499       25.5941073385        5.1414819365
  C        34.5404353605       25.5669293060        6.5630036987
  C        34.0230488748       24.4558342185        7.3011662268
  C        25.6863899158        8.6144891671        7.3124824283
  C        25.6658282220        8.6150754995        4.4992918787
  C        32.1109288244       21.2288534430       13.8796183683
  C        32.7053187552       22.3740688566       13.1264858003
  C        31.9580305130       23.0634800883       12.1583006982
  C        32.5398324956       24.0907963070       11.4185991089
  C        33.8814168906       24.4623847907       11.6333227124
  C        34.6125113951       23.7874281350       12.6294105935
  C        34.0363528836       22.7522743462       13.3613497641
  C        34.5184472067       25.5468859002       10.8508160028
  C        34.5219046342       25.5439782028        9.4294053179
  C        34.0122544731       24.4459240175        8.6676743895
  C        40.6211992151       17.1205746758        8.7607773881
  C        40.5994060331       17.1223225056       11.5702886971
  C        28.7464774643       14.0700123397       13.8132747595
  C        28.1335945713       12.9271297176       13.0698114773
  C        28.8705538249       12.2262710423       12.1027837758
  C        28.2887322501       11.1710195327       11.4035997268
  C        26.9545976434       10.7882347633       11.6490356010
  C        26.2340168396       11.4780319572       12.6416906450
  C        26.8135618808       12.5351791918       13.3407059331
  C        26.3132398420        9.6951256959       10.8794669126
  C        26.3003073189        9.7073747782        9.4579398563
  C        26.7989698491       10.8143996102        8.7018295346
  C        18.1353672646        3.1812092702        2.3222490223
  C        17.4061797422        4.2783964926        3.0208545618
  C        16.3904651814        4.0000775826        3.9484083273
  C        15.7428382657        5.0400931157        4.6119102493
  C        16.0948163958        6.3838130200        4.3722338824
  C        17.0842154244        6.6532891390        3.4084657033
  C        17.7332123482        5.6159186287        2.7433793818
  C        15.4705052467        7.4914930216        5.1352838887
  C        15.4856012394        7.4906478434        6.5569934204
  C        16.1871050521        6.4970032212        7.3101719695
  C        42.9459819865       31.8595717825        2.0779946997
  C        43.6463743110       30.7719052315        2.8219591542
  C        44.5916248874       31.0932525311        3.8082906044
  C        45.1973386637       30.0877123976        4.5559646250
  C        44.8711951088       28.7346141236        4.3408755317
  C        43.9457247996       28.4202558002        3.3273350342
  C        43.3368992310       29.4253882389        2.5792961464
  C        45.4887195160       27.6552936916        5.1440695230
  C        45.4927295215       27.6808527995        6.5657626900
  C        44.8055710861       28.6888439023        7.3123976371
  C        14.8565878026        8.5630970594        7.2693680584
  C        14.8754484391        8.5634040788        4.4567095581
  C        42.9465705134       31.9616910611       13.8039297381
  C        43.6919191349       30.8855769658       13.0905330899
  C        44.6560540516       31.1915043672       12.1177881176
  C        45.2775909222       30.1719206514       11.4000696956
  C        44.9543091486       28.8215555779       11.6381242892
  C        44.0214291544       28.5238963358       12.6494779085
  C        43.3931592780       29.5406472535       13.3616639704
  C        45.5632358169       27.7241299520       10.8528490434
  C        45.5332803561       27.7173462871        9.4315523004
  C        44.8268653312       28.7075027849        8.6785837677
  C        35.1295562011       26.6353367279        8.7251793425
  C        35.1345874255       26.6009366559       11.5352347102
  C        18.1485324006        3.2471077103       13.7014238934
  C        17.4299772522        4.3438531210       12.9921942113
  C        16.4147420045        4.0525922477       12.0686283091
  C        15.7664438519        5.0832371332       11.3932855351
  C        16.1211183433        6.4284782622       11.6160293319
  C        17.1125138405        6.7118469526       12.5732772423
  C        17.7601819834        5.6829283995       13.2530215638
  C        15.4906206917        7.5241563386       10.8435934126
  C        15.4964560638        7.5074588747        9.4224676245
  C        16.1932564154        6.5057790590        8.6757757666
  H        10.6722062408       12.4651434024       11.9002274608
  H        11.6945050274       10.5503266183       10.6583316130
  H        15.3923577827       11.1698211946       12.7659446535
  H        14.3519040724       13.0725878784       14.0110763363
  H        13.3762134052       11.6311850801        9.1963188936
  H        50.3229049091       22.7482759659       11.9816117524
  H        49.3198127418       24.6227734302       10.6755986099
  H        45.6426084986       24.1616736194       12.8590588322
  H        46.6635694525       22.2906396648       14.1673214940
  H        47.6299123793       23.5759106332        9.2412004951
  H        14.8724056197        8.5885346527       12.6035068674
  H        50.2870985857       22.7024950677        4.0656241121
  H        49.2691762385       24.5753892308        5.3656840817
  H        45.6106980891       24.1094626136        3.1510377552
  H        46.6528642278       22.2540666430        1.8367358656
  H        47.6078096204       23.5518334755        6.8020348521
  H        40.6615533605       17.1296083848        3.4297263395
  H        48.6872540590       14.0950244472       15.7949840762
  H        10.6812731374       12.4659945057        4.0976323568
  H        11.6897149470       10.5240921514        5.3013389757
  H        15.3945814415       11.1605707196        3.2121655939
  H        14.3659682112       13.0888992040        1.9969323109
  H        13.3760205621       11.6222437026        6.7582761151
  H        47.9302975128       14.2186340216        1.7159451821
  H        47.7801787515       14.3742393711       14.4904038677
  H        49.0846105251       18.5526864416        2.8726963686
  H        10.4164241920       14.1342742315        0.0038030877
  H        24.4860835189        3.0305544548       11.9129975175
  H        25.6271874975        4.8906821327       10.6890856213
  H        23.2522924866        7.7556960353       12.8454541775
  H        22.1292525049        5.8859994416       14.0708339024
  H        23.8120401354        5.7923970527        9.2661370278
  H        36.3729978251       32.1840375906       11.9646825734
  H        35.2534028237       30.3573546282       10.6832077878
  H        37.5341213243       27.4385400009       12.8700468963
  H        38.6328210850       29.2779353384       14.1609245498
  H        37.0270702525       29.4512724262        9.2609890221
  H        25.7414894914        8.6161260924       12.6469043420
  H        36.4533208518       32.2451715214        4.1112104223
  H        35.3365588487       30.4280239144        5.4046492170
  H        37.5207834751       27.4894786162        3.1456072571
  H        38.6120645708       29.3185594616        1.8394988595
  H        37.0393208786       29.4734157263        6.8227822933
  H        46.1097016968       26.5877226308        3.3907701666
  H        44.6683499376       35.1162687617       15.8088398862
  H        24.4312186634        3.0402482743        4.0955958821
  H        25.5590802823        4.8807583034        5.3485878750
  H        23.1593028639        7.7675619427        3.2500454142
  H        22.0430227419        5.9151360719        1.9969662227
  H        23.7857336842        5.7925441604        6.8279630483
  H        44.9540371404       34.3904959870        1.7003174795
  H        44.9019363730       34.2068500846       14.4855672967
  H        40.6662736146       33.2093842624        2.8582848418
  H        23.1503651237        1.9581170304        0.0104714738
  H        25.8394506187       19.6194944558       11.8767202953
  H        23.6665166557       19.6703152037       10.6458990798
  H        22.3349463757       16.2398362727       12.8727657892
  H        24.5085191476       16.2089454305       14.1041733431
  H        23.7225769479       17.6408098673        9.2382461338
  H        35.1442799828       15.4586200156       11.9792134896
  H        37.2669971070       15.4196147530       10.6625180027
  H        38.6979506266       18.8054750273       12.8957544713
  H        36.5717781158       18.8231427372       14.2158011544
  H        37.2296573349       17.4009762193        9.2402807652
  H        20.3611555543       17.9854241828       12.6634444937
  H        35.2065410808       15.4559558253        4.0672896947
  H        37.3430675149       15.4008071817        5.3664307553
  H        38.7364841635       18.8433044945        3.1971593658
  H        36.5981950412       18.8754892684        1.8939811397
  H        37.2492859119       17.4024018861        6.7952337006
  H        35.1406187801       26.6875247560        3.3941200341
  H        28.5051778686       21.0821953976       15.9869802585
  H        25.7493749943       19.6254641395        4.1690328309
  H        23.5654958163       19.6737847713        5.3860378333
  H        22.2951152089       16.1771668242        3.2282553817
  H        24.4796671331       16.1504027327        2.0081552355
  H        23.6989240196       17.6256843085        6.7985916869
  H        29.0184630463       21.7136762563        1.7614394909
  H        29.1426516361       21.7547645730       14.6195514082
  H        32.0812678988       18.5714003152        2.9932347636
  H        27.3466471578       19.0594317942        0.0893857311
  H        14.8473668095       19.6426036553        4.1512582142
  H        17.0093737278       19.6841106594        5.3957352469
  H        18.3010670074       16.1842320643        3.2558109682
  H        16.1349642639       16.1578543723        2.0112577639
  H        16.9195726658       17.6854292769        6.8561870560
  H        46.0969440732       15.4516104756        4.0815494755
  H        43.9748374693       15.4044574655        5.3955709688
  H        42.5638913682       18.8352421715        3.2172993375
  H        44.6860005199       18.8565672551        1.8929647003
  H        44.0318451445       17.3462021354        6.8521525542
  H        20.2865512535       17.9173668909        3.4270210536
  H        46.0384089222       15.3858432710       12.0329118751
  H        43.9056801413       15.3272154784       10.7388212575
  H        42.5185914314       18.7890458052       12.8817277167
  H        44.6581873907       18.8342795241       14.1758338560
  H        44.0121471495       17.3192480438        9.2918969164
  H        46.1998859515       26.6829021888       12.6183149398
  H        52.7414120559       21.0627272192        0.1998263388
  H        14.8789369116       19.6723091996       11.8882565816
  H        17.0796298266       19.7452423606       10.7086713030
  H        18.3400797080       16.2363083461       12.8516803957
  H        16.1411715424       16.1865145117       14.0403365126
  H        16.9425292993       17.7043230718        9.2934709951
  H        52.3230654608       21.6735171195       14.2889439831
  H        52.0136456003       21.7024093029        1.5007239079
  H        49.0679579123       18.6077402049       13.1988191759
  H        13.2482378779       19.0159152726       15.9723377882
  H        29.9401856742       12.4518800510        4.2363303290
  H        28.8704183815       10.5221035190        5.4099384391
  H        25.2376810254       11.2036417680        3.2115790686
  H        26.3275783753       13.1211545450        2.0299034806
  H        27.1586538131       11.6751934792        6.7939489570
  H        30.9916978611       22.7811941800        4.0076245260
  H        31.9975786198       24.6633943577        5.3047432749
  H        35.6944106992       24.1410012492        3.1691090022
  H        34.6663015097       22.2669670074        1.8655520843
  H        33.6572027337       23.5918773866        6.7538032321
  H        25.6935720066        8.5955905644        3.4112450678
  H        30.9191259872       22.7835844010       11.9980742674
  H        31.9540576300       24.6266576696       10.6747477133
  H        35.6507539041       24.0645679407       12.8003276932
  H        34.6041968022       22.2097286866       14.1137511517
  H        33.6378834955       23.5740318129        9.1963691389
  H        40.5912907470       17.0812224496       12.6578111785
  H        32.5103718667       14.1486604294        0.2631432551
  H        29.9035483281       12.5168735600       11.9238401233
  H        28.8679874960       10.6222937406       10.6640397678
  H        25.2013334824       11.1960122939       12.8366778388
  H        26.2544925445       13.0832555149       14.0954454434
  H        27.1585307138       11.6901417905        9.2340790813
  H        33.3061806221       14.2289852455       14.4563012302
  H        33.4078239022       14.4134070135        1.6079535940
  H        32.1328908311       18.4796441034       13.1762767961
  H        30.2194757616       14.1917230963        0.0759148775
  H        16.1183491362        2.9635961416        4.1348287669
  H        14.9533642930        4.8207906912        5.3275634343
  H        17.3667545317        7.6861425983        3.2153793243
  H        18.5152817283        5.8185953117        2.0155750945
  H        16.7537996212        5.7397556958        6.7766912327
  H        44.8277283582       32.1403514273        3.9826363466
  H        45.9370294554       30.3415066504        5.3120681496
  H        43.6833779990       27.3781456571        3.1569349894
  H        42.6006020640       29.1900409800        1.8143292474
  H        44.2302722464       29.4366533144        6.7740927476
  H        14.8519371763        8.5468449854        3.3684812166
  H        44.8992420471       32.2342079153       11.9259955764
  H        46.0241633273       30.4131972153       10.6465165622
  H        43.7650529459       27.4841175664       12.8415558694
  H        42.6471978077       29.3178481989       14.1206357316
  H        44.2684003523       29.4704299447        9.2131529155
  H        35.1009874216       26.6080921202       12.6230819547
  H        36.6051462840       35.1341927727        0.1857435298
  H        16.1436394197        3.0130274410       11.8988869745
  H        14.9741092184        4.8564513559       10.6831964491
  H        17.3960842794        7.7473033225       12.7501447453
  H        18.5431199623        5.8934299768       13.9777015745
  H        16.7647656294        5.7555852193        9.2141938190
  H        36.2784382398       34.4827323659       14.2678948288
  H        36.3810586214       34.2092228219        1.5046355563
  H        40.5810668394       33.2032512445       13.1481179266
  H        17.4708529683        1.9479938153       15.9689740232
  H        29.2198387517       19.4939348820        4.5783955549
  H        30.3804681916       19.8256216022       11.8485753998
  H        31.6418811047       15.7316318894       11.5423926908
  H        31.0602445796       15.4896330124        4.4385088495
  H        28.4173680006       18.2820163134        7.0663793446
  H        29.0745901084       15.4130500137        6.4915801740
  H        31.8891003117       19.2792895711       10.1560493466
  H        32.3025335138       17.1536320130        9.6792087383
  H        29.3391957329       15.4271869218       10.1562011027
  H        18.8537858460        0.8692391023        4.3403638606
  H        40.5279510295       35.2290105849       11.9468370640
  H        42.3249736456       34.4197482554       11.5848074515
  H        22.0876008552        0.6918179734        4.3569099492
  H        11.5969580404       18.7128148430        4.3876148021
  H        52.2651487591       18.4312491759       11.6721926671
  H        49.2549649935       16.4770051273       11.5795019728
  H        10.1504297498       15.7982385735        4.2978473991
  H        50.8503166533       17.6925457948       11.9490279782
  H        10.0462765179       17.3945636623        4.0569993699
  H        20.2151007020        0.0022850299        4.0470411544
  H        39.1837484857       36.1245758149       11.6814716803
 Ni        30.0525339640       17.5503982625       11.0774515532
 Ni        30.7740331819       16.1092401413        8.1615418455
 Ni        30.6081419375       18.5472633191        8.0772895956
 Ni        30.2311879470       17.4998713840        5.3299783560
  O        10.6499694478       14.3651076479       13.4807239042
  O        12.6131952876       14.6574998782       14.5787643675
  O        49.1480432394       16.8458207839       15.9845663213
  O        50.3503153032       20.9358362240       13.6428795869
  O        48.3485767000       20.5933622929       14.6607739325
  O        11.0518246714       17.0538315650       14.4956508646
  O        50.3210048115       20.8816796743        2.4119934888
  O        48.3467332860       20.5868006534        1.3322459839
  O        49.5438896265       18.2484184940        2.0732894704