     574
 i =      303, E =     -4778.8948486894
  C        11.8587503038       14.0534882527       13.7364624451
  C        12.4562869584       12.8905942564       13.0181293054
  C        11.7046180585       12.1717000386       12.0764318227
  C        12.2810054720       11.1094810519       11.3841177795
  C        13.6215890251       10.7397290989       11.6118635307
  C        14.3547454852       11.4433025851       12.5853357281
  C        13.7818491175       12.5082942268       13.2768060424
  C        14.2611143404        9.6490520340       10.8384939362
  C        14.2565077577        9.6570106817        9.4167999030
  C        13.7433568229       10.7591493606        8.6629030434
  C        49.1268714556       21.2332314669       13.8745675248
  C        48.5501700618       22.4011881199       13.1474681274
  C        49.3002166493       23.0685211064       12.1664940182
  C        48.7332829131       24.1076690082       11.4333011950
  C        47.4027485791       24.5093279449       11.6619379907
  C        46.6717804664       23.8604195499       12.6754171260
  C        47.2342236822       22.8155119077       13.4047636904
  C        46.7724920148       25.5870304254       10.8646877866
  C        46.7614851628       25.5574123482        9.4429280401
  C        47.2614324893       24.4423329782        8.6994220446
  C        14.8604277255        8.5706539706        8.7035544161
  C        14.8918208294        8.5970712590       11.5151539945
  C        49.1132884987       21.2035176498        2.1504713067
  C        48.5279659184       22.3648772124        2.8776613182
  C        49.2671971177       23.0255854065        3.8705782950
  C        48.6908723868       24.0601643523        4.6020109365
  C        47.3604543521       24.4569283800        4.3637868824
  C        46.6400200438       23.8119901089        3.3403013767
  C        47.2135632419       22.7760614650        2.6085539783
  C        46.7219814305       25.5318943804        5.1547920490
  C        46.7337498744       25.5282597960        6.5764918615
  C        47.2491368087       24.4290225143        7.3328715665
  C        40.6342012476       17.1604073918        7.3293118444
  C        40.6548916630       17.1820203340        4.5206677514
  C        11.8830003697       14.0864911335        2.2905906587
  C        12.4723843900       12.9107583241        2.9948709488
  C        11.7148661751       12.1774951257        3.9209263501
  C        12.2814896717       11.0950454340        4.5893226911
  C        13.6203613350       10.7214539464        4.3575778218
  C        14.3583470900       11.4370981639        3.3968458980
  C        13.7928876629       12.5182644074        2.7241814164
  C        14.2539726262        9.6247001704        5.1279693652
  C        14.2527087710        9.6446652566        6.5498022750
  C        13.7428758101       10.7536454005        7.2968580907
  C        22.5111468525        3.2440978630       13.7480404025
  C        23.2244303864        4.3496401264       13.0480028971
  C        24.2199152245        4.0700779587       12.1002202151
  C        24.8453669485        5.1101090609       11.4176659491
  C        24.4908159756        6.4515059299       11.6630738215
  C        23.5235489545        6.7226442965       12.6478374785
  C        22.8934276205        5.6844062344       13.3286945806
  C        25.0956780172        7.5581433448       10.8875499590
  C        25.0679262473        7.5514084695        9.4661393406
  C        24.3635483686        6.5535317755        8.7202115097
  C        38.3023464787       31.9300918482       13.8445827470
  C        37.5719795472       30.8406445114       13.1362176685
  C        36.6112196353       31.1443094799       12.1596180709
  C        35.9935810143       30.1237608082       11.4422226524
  C        36.3223306588       28.7748631018       11.6799377232
  C        37.2531990750       28.4786229979       12.6932732130
  C        37.8748749686       29.4978629544       13.4095949052
  C        35.7204855996       27.6832596840       10.8825343672
  C        35.7517946362       27.6989621412        9.4612933300
  C        36.4578633129       28.7017686400        8.7248267023
  C        25.6928834156        8.6201839590        8.7463077909
  C        25.6928327126        8.6327365347       11.5585320321
  C        38.3291493704       31.9623944024        2.1617539529
  C        37.6081553808       30.8897540500        2.9047506362
  C        36.6795828200       31.1993593253        3.9102682121
  C        36.0694979575       30.1814721388        4.6406148407
  C        36.3736759945       28.8287098965        4.3887204797
  C        37.2802257476       28.5290927287        3.3534164235
  C        37.8924876001       29.5434488412        2.6243968810
  C        35.7649475285       27.7300056704        5.1727051741
  C        35.7744752284       27.7230491141        6.5946669980
  C        36.4682764778       28.7135591581        7.3583252631
  C        46.1357003792       26.6208643562        7.2866358203
  C        46.0880380469       26.5802552904        4.4787328476
  C        22.4601083917        3.2558969477        2.2627620445
  C        23.1524428127        4.3653188428        2.9860282349
  C        24.1531847095        4.0804922566        3.9285628087
  C        24.7793311068        5.1116023892        4.6246357362
  C        24.4249909254        6.4570875421        4.4005167804
  C        23.4472959744        6.7351813405        3.4265752309
  C        22.8163743062        5.7042773874        2.7311441995
  C        25.0547562393        7.5556651926        5.1746811910
  C        25.0473307890        7.5495736449        6.5974091773
  C        24.3518194229        6.5538605839        7.3536125821
  C        26.6195349373       17.8588250381       13.7773448495
  C        25.3139102187       17.9002131031       13.0504218497
  C        25.0470625730       18.8983300065       12.0996967703
  C        23.8345406999       18.9118603090       11.4127168402
  C        22.8505936912       17.9320248575       11.6562403049
  C        23.1128605764       16.9569818293       12.6371791640
  C        24.3280075848       16.9368739124       13.3202783480
  C        21.5770827953       17.9140078424       10.8923861245
  C        21.5777077844       17.8920774361        9.4699371477
  C        22.7834995578       17.7697598905        8.7094401247
  C        34.4416801174       17.1945123385       13.9186724975
  C        35.7359964701       17.1460030170       13.1777461991
  C        35.9449390466       16.1798067510       12.1811594263
  C        37.1225311023       16.1773363226       11.4390000239
  C        38.1250084092       17.1371911909       11.6781281616
  C        37.9204361747       18.0819153391       12.7016345702
  C        36.7384096724       18.0923424403       13.4380015612
  C        39.3788131511       17.1529832008       10.8917725004
  C        39.3748221987       17.1741621662        9.4705029551
  C        38.1681522286       17.2989406682        8.7124624772
  C        20.3312309654       17.9098528251        8.7613115122
  C        20.3523436108       17.9170545087       11.5748140179
  C        34.4774412646       17.2462380673        2.1873215075
  C        35.7801884138       17.1752688112        2.9099346111
  C        35.9914266038       16.2001353444        3.8959600157
  C        37.1765339821       16.1873238874        4.6257565851
  C        38.1779598764       17.1484205646        4.3876304195
  C        37.9731529047       18.0979252335        3.3693978674
  C        36.7856223339       18.1165488748        2.6432524220
  C        39.4234721096       17.1718881590        5.1842929775
  C        39.3979617015       17.1852224005        6.6051598795
  C        38.1794597336       17.3029710355        7.3457457014
  C        35.1433315496       26.6438174620        7.2980419305
  C        35.1744003430       26.6600302061        4.4890021150
  C        26.5718467744       17.8278150674        2.3283495222
  C        25.2555922282       17.8713288559        3.0330386972
  C        24.9891618504       18.8757157456        3.9757768236
  C        23.7720275224       18.8973018536        4.6512008987
  C        22.7917454507       17.9149215342        4.4062223739
  C        23.0518392503       16.9361702230        3.4300717017
  C        24.2701153765       16.9121202361        2.7537518318
  C        21.5284848884       17.8928443891        5.1799205046
  C        21.5525374659       17.8796494456        6.6014042282
  C        22.7711544445       17.7635381179        7.3431014770
  C        14.0465198179       17.8282205020        2.2941874976
  C        15.3508173345       17.8830796932        3.0197456019
  C        15.6082287078       18.8831702271        3.9703927089
  C        16.8173149675       18.9008454795        4.6632534250
  C        17.8031669940       17.9213285690        4.4273598842
  C        17.5506393565       16.9457435867        3.4444511448
  C        16.3409612954       16.9233159398        2.7534758027
  C        19.0723375739       17.9008642813        5.1959965221
  C        19.0711676398       17.8933325895        6.6183831260
  C        17.8641932281       17.7924130010        7.3794638874
  C        46.8065739090       17.2206788652        2.1652158786
  C        45.5189654041       17.1659322775        2.9142466052
  C        45.3130100400       16.1957313063        3.9070137233
  C        44.1331895280       16.1869998906        4.6461685034
  C        43.1304037811       17.1482673117        4.4132558894
  C        43.3338652128       18.0981646270        3.3942964263
  C        44.5144133009       18.1112366149        2.6567257418
  C        41.8777495106       17.1674315796        5.2011516564
  C        41.8819204485       17.1710394382        6.6226592640
  C        43.0901678643       17.2653759091        7.3824107728
  C        20.3179718714       17.9026305124        7.3265181033
  C        20.2963944243       17.8834349826        4.5134777878
  C        46.7862665405       17.2314237544       13.8851850751
  C        45.4822446284       17.1288990593       13.1721119850
  C        45.2618106618       16.1371691046       12.2046341347
  C        44.0732194554       16.1179511421       11.4793639188
  C        43.0768310139       17.0872684459       11.7054154833
  C        43.2867711519       18.0470791600       12.7128076193
  C        44.4765334432       18.0730495488       13.4326839577
  C        41.8319807848       17.1195505283       10.9079588698
  C        41.8586511445       17.1449001860        9.4875625738
  C        43.0791551892       17.2505837203        8.7487807561
  C        46.1534585794       26.6372856471        8.7211819991
  C        46.1625100647       26.6561294934       11.5308200591
  C        14.0453152288       17.8301937513       13.7028545677
  C        15.3660567100       17.9000509938       13.0111417736
  C        15.6427541268       18.9131360863       12.0810433264
  C        16.8720457839       18.9455372951       11.4263443946
  C        17.8523314320       17.9639565746       11.6759404886
  C        17.5824111298       16.9796431657       12.6439638087
  C        16.3552153113       16.9467233853       13.3021165059
  C        19.1199455022       17.9348843779       10.9075809613
  C        19.0961473342       17.9094151924        9.4861508537
  C        17.8763415968       17.7996350519        8.7454773555
  C        28.8084268630       14.0917737048        2.3961176737
  C        28.1928913163       12.9191833185        3.0836284927
  C        28.9167854735       12.1743072620        4.0263700170
  C        28.3163023964       11.0999572023        4.6779222843
  C        26.9781165266       10.7468639490        4.4107076867
  C        26.2758122949       11.4722582841        3.4316797119
  C        26.8740534297       12.5467937154        2.7783753179
  C        26.3087517280        9.6672730621        5.1719580485
  C        26.2985890898        9.6924810902        6.5930659802
  C        26.8075970758       10.8027734632        7.3389931383
  C        32.1787442581       21.2442670242        2.1500045526
  C        32.7732100142       22.4112669026        2.8669935996
  C        32.0252515228       23.0872711050        3.8431680248
  C        32.5958582961       24.1258754573        4.5724649756
  C        33.9298863285       24.5160861672        4.3462366863
  C        34.6602421027       23.8588718950        3.3382185018
  C        34.0920666122       22.8147100327        2.6108586964
  C        34.5589705910       25.5902399890        5.1478528526
  C        34.5507630224       25.5608988859        6.5695465949
  C        34.0406763937       24.4460125363        7.3071141272
  C        25.6868447101        8.6157402336        7.3117805750
  C        25.6703358803        8.6177332882        4.4985455207
  C        32.1038197191       21.2300833309       13.8842331291
  C        32.6937799530       22.3833116347       13.1422730440
  C        31.9581463729       23.0400928953       12.1433676806
  C        32.5383958411       24.0671316282       11.4023775347
  C        33.8671990736       24.4682160883       11.6435451620
  C        34.5849538503       23.8250342087       12.6702265213
  C        34.0101913982       22.7916815966       13.4055714554
  C        34.5070267946       25.5488704322       10.8583376565
  C        34.5230331209       25.5400743810        9.4364347474
  C        34.0264287198       24.4365323081        8.6737318759
  C        40.6220754437       17.1510169223        8.7631557862
  C        40.6011686551       17.1427009148       11.5725564548
  C        28.7378322702       14.0662335917       13.8140867615
  C        28.1282287685       12.9215102400       13.0748359921
  C        28.8682190900       12.2136661160       12.1153049806
  C        28.2858984654       11.1590567321       11.4163175476
  C        26.9482946084       10.7843370524       11.6537725582
  C        26.2251894654       11.4787082274       12.6416677400
  C        26.8053417834       12.5349573449       13.3411630754
  C        26.3065318865        9.6939396216       10.8809762975
  C        26.2994584117        9.7060780026        9.4592867744
  C        26.8063814573       10.8105068369        8.7048716085
  C        18.1353863471        3.1809938623        2.3222954734
  C        17.4061376896        4.2782531829        3.0209391071
  C        16.3903506540        3.9999098775        3.9483821799
  C        15.7426586052        5.0399093257        4.6118855261
  C        16.0946230881        6.3836161587        4.3722107872
  C        17.0840801762        6.6531205563        3.4085198834
  C        17.7331287767        5.6157625226        2.7434598342
  C        15.4703481149        7.4913390503        5.1352520508
  C        15.4856296005        7.4906402916        6.5569618141
  C        16.1871178338        6.4969824642        7.3101385880
  C        42.9459329165       31.8595322658        2.0780088187
  C        43.6463388481       30.7718910213        2.8219620808
  C        44.5918978248       31.0932433771        3.8079929943
  C        45.1976337255       30.0877093085        4.5556486154
  C        44.8712062608       28.7346384436        4.3408280418
  C        43.9453478226       28.4202762947        3.3276510561
  C        43.3364950739       29.4254015126        2.5796185863
  C        45.4887943834       27.6553482776        5.1440276497
  C        45.4929745293       27.6809812155        6.5657200287
  C        44.8058725550       28.6890276746        7.3123291389
  C        14.8567105516        8.5631495561        7.2693372443
  C        14.8751303671        8.5631463230        4.4566700261
  C        42.9464884740       31.9615794642       13.8038899812
  C        43.6917260956       30.8854697042       13.0903978682
  C        44.6563350741       31.1913932634       12.1181204717
  C        45.2778882983       30.1718199444       11.4004045467
  C        44.9541118127       28.8214945352       11.6380118535
  C        44.0206505077       28.5238080572       12.6488064000
  C        43.3923617214       29.5405652554       13.3609761013
  C        45.5632038364       27.7241222967       10.8527661418
  C        45.5334724912       27.7174343415        9.4314681428
  C        44.8271052249       28.7076336521        8.6785147976
  C        35.1305939137       26.6323168855        8.7327623504
  C        35.1169080682       26.6071834545       11.5425236208
  C        18.1485618698        3.2470134982       13.7014749820
  C        17.4299485493        4.3438460660       12.9922135030
  C        16.4147597608        4.0525573296       12.0686296600
  C        15.7664351167        5.0832026940       11.3932747615
  C        16.1211260494        6.4284275034       11.6160048995
  C        17.1124749283        6.7118111098       12.5732890091
  C        17.7601599805        5.6828982038       13.2530307019
  C        15.4906921254        7.5241599511       10.8435741889
  C        15.4965678378        7.5075070632        9.4224430339
  C        16.1933445929        6.5058148187        8.6757424345
  H        10.6724730269       12.4657931149       11.8994415755
  H        11.6947430122       10.5509735019       10.6575781521
  H        15.3917931835       11.1687491411       12.7670326073
  H        14.3512949619       13.0715498686       14.0122282977
  H        13.3763615945       11.6312725958        9.1962287981
  H        50.3229263660       22.7484860515       11.9817484304
  H        49.3197774898       24.6229723002       10.6757561143
  H        45.6422903902       24.1611974668       12.8585922747
  H        46.6632024176       22.2902480363       14.1668301033
  H        47.6299506741       23.5759464694        9.2411049771
  H        14.8721235648        8.5882880377       12.6034601369
  H        50.2872591072       22.7027675373        4.0654578060
  H        49.2692781426       24.5756539040        5.3654819210
  H        45.6106127940       24.1092312015        3.1512550280
  H        46.6527297748       22.2538826204        1.8370157569
  H        47.6079221603       23.5519079513        6.8019724569
  H        40.6618645125       17.1449636871        3.4330289216
  H        48.6869961201       14.0949747952       15.7948912235
  H        10.6813436440       12.4664447531        4.0982334080
  H        11.6897099120       10.5245393162        5.3019399824
  H        15.3938358575       11.1593491400        3.2110269516
  H        14.3652464506       13.0877602435        1.9957673826
  H        13.3760566401       11.6222594290        6.7582135573
  H        47.9302041864       14.2181638797        1.7161093241
  H        47.7800706390       14.3735169399       14.4899933261
  H        49.0843855713       18.5528036659        2.8727201873
  H        10.4161147039       14.1342861689        0.0038352268
  H        24.4809656888        3.0316140595       11.9088726775
  H        25.6175496234        4.8935847373       10.6826410196
  H        23.2426880091        7.7554454290       12.8433818080
  H        22.1242503553        5.8838154820       14.0707928106
  H        23.8009714764        5.7978851135        9.2606903751
  H        36.3736073631       32.1874576624       11.9649600727
  H        35.2482379296       30.3621326102       10.6866379841
  H        37.5141947007       27.4396186888       12.8834813281
  H        38.6194470848       29.2776177058       14.1708777807
  H        37.0228090334       29.4512322202        9.2714093380
  H        25.7267151277        8.6161718755       12.6463907086
  H        36.4568103707       32.2437532580        4.1167028496
  H        35.3437323904       30.4268883821        5.4127920331
  H        37.5268633596       27.4886538385        3.1524549927
  H        38.6148034774       29.3172363493        1.8438671949
  H        37.0424291912       29.4715919688        6.8333642609
  H        46.1094334288       26.5876377172        3.3906968259
  H        44.6682458716       35.1161689092       15.8088072859
  H        24.4310576621        3.0425329680        4.0971726026
  H        25.5590711742        4.8839205512        5.3483262421
  H        23.1621944337        7.7693947704        3.2445766624
  H        22.0456486050        5.9159443750        1.9936097217
  H        23.7795506696        5.7990016087        6.8221771778
  H        44.9537363733       34.3903384036        1.7002808791
  H        44.9016328237       34.2067328927       14.4855383693
  H        40.6659460204       33.2090744201        2.8582598386
  H        23.1503565098        1.9578682490        0.0104293717
  H        25.7987297985       19.6626103434       11.9155931910
  H        23.6335579900       19.6919089206       10.6814327529
  H        22.3649696520       16.1916692864       12.8346719812
  H        24.5409347577       16.1704265028       14.0618678007
  H        23.7243133760       17.6507705458        9.2389847938
  H        35.1687518603       15.4398353691       12.0002528976
  H        37.2829896631       15.4225972014       10.6722204777
  H        38.6876171835       18.8301387828       12.8900114258
  H        36.5620480135       18.8372341506       14.2105710312
  H        37.2276872415       17.4199389048        9.2425909415
  H        20.3590393593       17.9584566796       12.6626337145
  H        35.2072079254       15.4711996664        4.0867468635
  H        37.3403881692       15.4289053754        5.3881492351
  H        38.7409553458       18.8457253460        3.1820133644
  H        36.6038835333       18.8676116139        1.8781466972
  H        37.2479065610       17.4268827527        6.8010597787
  H        35.1468050179       26.6865674777        3.4013274061
  H        28.5099355401       21.0830654797       15.9718719963
  H        25.7490351816       19.6317203431        4.1607210778
  H        23.5651727412       19.6800452197        5.3778772459
  H        22.3029288955       16.1712876582        3.2349828489
  H        24.4875515277       16.1443934121        2.0150071576
  H        23.7023491184       17.6397199442        6.7982444398
  H        29.0047694758       21.7210793811        1.7650998412
  H        29.1507753911       21.7477721052       14.6111155318
  H        32.0901799494       18.5692817724        2.9899788629
  H        27.4030551124       19.0738490636        0.0872202135
  H        14.8503696692       19.6422089467        4.1511247479
  H        17.0132189660       19.6824503163        5.3941759557
  H        18.3014300685       16.1817489595        3.2531960632
  H        16.1342702025       16.1566996760        2.0104979783
  H        16.9217746427       17.6771510368        6.8519500790
  H        46.0943174927       15.4623084245        4.0921298841
  H        43.9728839951       15.4270489175        5.4077549975
  H        42.5672058066       18.8481324100        3.2110918670
  H        44.6889888439       18.8588310803        1.8865693957
  H        44.0322251127       17.3805635948        6.8539555094
  H        20.2902848710       17.9168916047        3.4254557153
  H        46.0376226344       15.3970611146       12.0221492636
  H        43.9042230911       15.3496756474       10.7279969953
  H        42.5215097341       18.7990149385       12.8936225673
  H        44.6617865144       18.8337074106       14.1870146126
  H        44.0128250454       17.3531862144        9.2941600965
  H        46.1993858482       26.6826727111       12.6182648707
  H        52.7412411382       21.0626673046        0.1998387925
  H        14.8847317776       19.6690313307       11.8878216654
  H        17.0857322289       19.7340914459       10.7079854692
  H        18.3304224794       16.2152957033       12.8443724980
  H        16.1315148087       16.1739547446       14.0335067257
  H        16.9430495561       17.6900299406        9.2895783640
  H        52.3226635110       21.6733148050       14.2890409099
  H        52.0133138594       21.7021107698        1.5007772688
  H        49.0677454841       18.6079110501       13.1990191725
  H        13.2477371989       19.0160025045       15.9720861523
  H        29.9479049486       12.4517883447        4.2337360140
  H        28.8790790234       10.5208273419        5.4068680152
  H        25.2416990099       11.2094290632        3.2184668128
  H        26.3299061759       13.1283723450        2.0382492095
  H        27.1740438874       11.6700898555        6.7982381263
  H        31.0010116076       22.7718203881        4.0266497479
  H        32.0109153619       24.6489060905        5.3258637286
  H        35.6928559471       24.1510495750        3.1584866498
  H        34.6616163661       22.2809146202        1.8535336983
  H        33.6835061776       23.5780355449        6.7602927503
  H        25.6992334005        8.5990976259        3.4105016594
  H        30.9334397288       22.7260557186       11.9566137269
  H        31.9615778769       24.5775712199       10.6341381241
  H        35.6134624706       24.1240050225       12.8617263802
  H        34.5698570718       22.2722979648       14.1800440960
  H        33.6588757402       23.5606410607        9.2007479230
  H        40.5932389380       17.0971316629       12.6599042417
  H        32.5166392437       14.1460915520        0.2692353420
  H        29.9025620751       12.4988846666       11.9373671161
  H        28.8668988670       10.6064007590       10.6811517923
  H        25.1903175911       11.2013894674       12.8315738726
  H        26.2442375278       13.0869340727       14.0915450835
  H        27.1708049872       11.6839587816        9.2377906401
  H        33.2986531161       14.1969083479       14.4365407217
  H        33.4092180208       14.4074628962        1.6142484670
  H        32.2508727484       18.6070219166       13.2668061887
  H        30.2230500359       14.1908421322        0.0815623147
  H        16.1182320568        2.9634145190        4.1347541833
  H        14.9531328838        4.8205575858        5.3274711731
  H        17.3665543901        7.6859882852        3.2154323079
  H        18.5151985680        5.8183756314        2.0156390092
  H        16.7536446631        5.7396201232        6.7766386190
  H        44.8281958929       32.1403289170        3.9821350774
  H        45.9375241099       30.3414685587        5.3115664390
  H        43.6826258956       27.3782076245        3.1575747441
  H        42.5998622262       29.1900482222        1.8149738239
  H        44.2305000236       29.4367794301        6.7740221052
  H        14.8513801861        8.5463765257        3.3684493570
  H        44.8998614622       32.2340779795       11.9266690434
  H        46.0248012978       30.4130519137       10.6471754116
  H        43.7637191399       27.4840730515       12.8403823304
  H        42.6458707559       29.3177530212       14.1194261364
  H        44.2685913411       29.4705122101        9.2131035250
  H        35.0743490357       26.6193576835       12.6299864190
  H        36.6050684789       35.1340678358        0.1857382501
  H        16.1436531177        3.0129830455       11.8989242030
  H        14.9741125477        4.8563698791       10.6831815590
  H        17.3959836110        7.7472780422       12.7501718566
  H        18.5430128223        5.8933237463       13.9778237880
  H        16.7647092525        5.7555306352        9.2141918126
  H        36.2783878756       34.4826760889       14.2680275956
  H        36.3805957742       34.2093068401        1.5048426955
  H        40.5801924619       33.2024720162       13.1485461555
  H        17.4706302206        1.9473374986       15.9690543981
  H        29.1884146260       19.4911160852        4.5490928686
  H        28.8284196205       19.0347349446       11.7295421513
  H        30.6528043510       15.4790183000       11.8246272893
  H        31.1466017836       15.5829496440        4.5020626119
  H        28.1775835178       18.3753655188        6.8788945867
  H        29.3230700120       15.2613790387        6.4089936444
  H        31.1918362861       19.9268536348       10.0775911845
  H        32.6203546657       17.6692337670        9.3712027600
  H        29.0313180664       16.8492845040        9.4173605422
  H        18.8537302904        0.8691712270        4.3404211324
  H        40.5279555919       35.2290539529       11.9469581230
  H        42.3239964116       34.4188023833       11.5854249909
  H        22.0878657686        0.6924059436        4.3565300528
  H        11.5969462001       18.7132182918        4.3877387170
  H        52.2649669751       18.4313016927       11.6720305108
  H        49.2552722537       16.4771096320       11.5794413944
  H        10.1510067301       15.7980848743        4.2974331551
  H        50.8501913744       17.6924025826       11.9491734357
  H        10.0465523887       17.3944731533        4.0570569146
  H        20.2150483412        0.0024320038        4.0470743815
  H        39.1836607917       36.1244285656       11.6812749223
 Ni        30.7754317189       17.7160003797       10.9944313605
 Ni        30.9450671233       16.2625750943        8.0776689862
 Ni        30.1421468670       18.9135922350        8.1589851943
 Ni        30.2688129513       17.5709103240        5.3305832657
  O        10.6499592314       14.3650813990       13.4807277580
  O        12.6131767300       14.6574992950       14.5787756098
  O        49.1481797107       16.8459027484       15.9846487578
  O        50.3503113860       20.9358254534       13.6429640019
  O        48.3485937561       20.5933636559       14.6608087122
  O        11.0517950819       17.0538545602       14.4955251591
  O        50.3210891889       20.8816568988        2.4119509929
  O        48.3467769663       20.5868572954        1.3322795385
  O        49.5438069755       18.2484048180        2.0734207743