     576
 i =      213, E =     -4780.0416858889
  C        11.8588073297       14.0535065843       13.7364397156
  C        12.4563133804       12.8906191124       13.0181278262
  C        11.7045341611       12.1715121365       12.0766641358
  C        12.2809276437       11.1093239044       11.3843106137
  C        13.6215890711       10.7397275489       11.6118951868
  C        14.3548808907       11.4435039599       12.5851193112
  C        13.7819676013       12.5084800810       13.2766152526
  C        14.2610937800        9.6490329946       10.8385159155
  C        14.2563739322        9.6569414859        9.4168186903
  C        13.7432250300       10.7590939944        8.6629406687
  C        49.1269818263       21.2331873500       13.8745466770
  C        48.5502822068       22.4012256129       13.1475126629
  C        49.3002272576       23.0684357214       12.1663902815
  C        48.7332912455       24.1076035954       11.4332210201
  C        47.4028100560       24.5093508189       11.6619808507
  C        46.6719622409       23.8606155316       12.6756581562
  C        47.2344212794       22.8156935304       13.4049702388
  C        46.7724947808       25.5870097488       10.8647247599
  C        46.7613584989       25.5573377978        9.4429677890
  C        47.2612842059       24.4422470905        8.6994641470
  C        14.8603032864        8.5705952041        8.7035594197
  C        14.8918705236        8.5970966923       11.5151835625
  C        49.1133034590       21.2034856929        2.1504545423
  C        48.5279476208       22.3648849523        2.8776335257
  C        49.2671093051       23.0255207503        3.8706368610
  C        48.6907648581       24.0600559259        4.6021264290
  C        47.3603984061       24.4569124243        4.3637866433
  C        46.6400762268       23.8121364410        3.3401151234
  C        47.2136555303       22.7762578529        2.6083219197
  C        46.7218835279       25.5318385269        5.1548178337
  C        46.7335221135       25.5281337419        6.5765232540
  C        47.2489803527       24.4289340789        7.3329133270
  C        40.6347015953       17.1511590510        7.3255032532
  C        40.6542778754       17.1716591805        4.5165469271
  C        11.8830546535       14.0865455584        2.2906548211
  C        12.4724480055       12.9108536378        2.9949413290
  C        11.7148897959       12.1774821553        3.9208819101
  C        12.2815390875       11.0950607605        4.5892804913
  C        13.6204534995       10.7215456321        4.3576254454
  C        14.3584864859       11.4372835242        3.3969932977
  C        13.7929989342       12.5184352309        2.7243075814
  C        14.2540378808        9.6247433318        5.1279793151
  C        14.2526429053        9.6446576192        6.5498171661
  C        13.7427370529       10.7535910789        7.2968954442
  C        22.5127378322        3.2444289901       13.7484433994
  C        23.2294848485        4.3490183470       13.0500997105
  C        24.2257634013        4.0675013624       12.1035516419
  C        24.8548145447        5.1060875723       11.4219651118
  C        24.5035171112        6.4484661628       11.6668937744
  C        23.5357944671        6.7215190742       12.6507824154
  C        22.9019563293        5.6846985479       13.3306921915
  C        25.1101127806        7.5540801823       10.8905075155
  C        25.0775018023        7.5480949569        9.4691272115
  C        24.3713679404        6.5504331158        8.7245159667
  C        38.3028484439       31.9295037586       13.8441094550
  C        37.5737597690       30.8391570510       13.1349758494
  C        36.6153553349       31.1415436374       12.1556969289
  C        35.9995304575       30.1201005252       11.4377776517
  C        36.3271864678       28.7713307091       11.6779973304
  C        37.2555870463       28.4763941670       12.6940072610
  C        37.8757870507       29.4965669086       13.4104482613
  C        35.7264931443       27.6788204901       10.8804921786
  C        35.7597895525       27.6937988399        9.4591859082
  C        36.4675434815       28.6954074631        8.7225438811
  C        25.6994099282        8.6177956329        8.7479866091
  C        25.7119532013        8.6270590769       11.5600531603
  C        38.3292302335       31.9624144090        2.1613624043
  C        37.6086321888       30.8888860480        2.9037020653
  C        36.6818225110       31.1971483767        3.9111551248
  C        36.0730808830       30.1781542481        4.6410979326
  C        36.3769133524       28.8258388140        4.3865760551
  C        37.2813001483       28.5275519075        3.3490877486
  C        37.8923666168       29.5430301211        2.6206652327
  C        35.7696366659       27.7262705139        5.1703706267
  C        35.7817234157       27.7182771088        6.5922923847
  C        36.4776838022       28.7073701422        7.3560042834
  C        46.1354670224       26.6207385149        7.2866727361
  C        46.0879675889       26.5802348193        4.4787827328
  C        22.4599570697        3.2557542194        2.2631100243
  C        23.1518740028        4.3645782237        2.9872054005
  C        24.1520996065        4.0789303386        3.9300935134
  C        24.7781080945        5.1094241528        4.6271138340
  C        24.4241978420        6.4551039422        4.4035338255
  C        23.4469822696        6.7339708866        3.4292932894
  C        22.8161086450        5.7037233922        2.7329521178
  C        25.0545152131        7.5534626273        5.1773737931
  C        25.0493048409        7.5473001513        6.6001714172
  C        24.3561855517        6.5510605796        7.3579061213
  C        26.6224842288       17.8606800751       13.7773353170
  C        25.3134112373       17.9070662943       13.0533948933
  C        25.0578127662       18.8987557392       12.0934060977
  C        23.8445701616       18.9193794517       11.4074751900
  C        22.8506787222       17.9514916567       11.6592680517
  C        23.1031806808       16.9824437776       12.6485378507
  C        24.3182406977       16.9565849701       13.3320500407
  C        21.5774160139       17.9359841521       10.8948647564
  C        21.5766138432       17.9101229261        9.4723623399
  C        22.7817484724       17.7834833676        8.7115831888
  C        34.4401134569       17.1975656650       13.9169383179
  C        35.7317495831       17.1547364695       13.1676971597
  C        35.9416796581       16.1877195716       12.1724524780
  C        37.1213499394       16.1825126439       11.4333676765
  C        38.1241592630       17.1419594204       11.6723854880
  C        37.9172533176       18.0900440596       12.6919775782
  C        36.7338085434       18.1015163808       13.4266473053
  C        39.3793434775       17.1536275006       10.8881457249
  C        39.3761496620       17.1703809871        9.4669164278
  C        38.1695148453       17.2926521303        8.7082316797
  C        20.3300305975       17.9271372543        8.7637656055
  C        20.3523944746       17.9409066516       11.5769116642
  C        34.4715301152       17.2463354186        2.1881240047
  C        35.7761669748       17.1707797374        2.9103581738
  C        35.9934387731       16.1864285677        3.8858420582
  C        37.1796173417       16.1710799940        4.6144265849
  C        38.1766705863       17.1388746833        4.3850098326
  C        37.9663871016       18.0975224324        3.3767990699
  C        36.7778364345       18.1181884424        2.6520632079
  C        39.4232299276       17.1605330582        5.1805395784
  C        39.3985378766       17.1740712048        6.6011476761
  C        38.1800395405       17.2922054125        7.3416553464
  C        35.1502566254       26.6394120845        7.2956825135
  C        35.1775065806       26.6571107503        4.4865552166
  C        26.5692055695       17.8244158960        2.3291968147
  C        25.2531964900       17.8718740315        3.0347561241
  C        24.9888688675       18.8770801607        3.9772259921
  C        23.7718466978       18.9011775625        4.6528806318
  C        22.7896133959       17.9205750505        4.4083725127
  C        23.0478158988       16.9410513134        3.4325408063
  C        24.2659438840       16.9144726183        2.7560345916
  C        21.5264753188       17.9011950923        5.1820706102
  C        21.5505964072       17.8910755043        6.6035149633
  C        22.7690965723       17.7744695743        7.3453453615
  C        14.0464490790       17.8286052359        2.2942843824
  C        15.3501884308       17.8847969502        3.0202376348
  C        15.6060706897       18.8863995898        3.9697837945
  C        16.8146037075       18.9061278214        4.6633679809
  C        17.8015049904       17.9271723555        4.4295286254
  C        17.5504035154       16.9499503479        3.4478273416
  C        16.3413005684       16.9255110915        2.7558799742
  C        19.0704384790       17.9093064250        5.1985030260
  C        19.0693329279       17.9056349823        6.6209632018
  C        17.8625503763       17.8065603747        7.3825352985
  C        46.8069203205       17.2200463869        2.1644301258
  C        45.5187829324       17.1633008546        2.9123672345
  C        45.3133339307       16.1912236883        3.9033098036
  C        44.1330597915       16.1800067324        4.6415256346
  C        43.1297908745       17.1408010294        4.4092746496
  C        43.3326248478       18.0925689328        3.3920489679
  C        44.5136516337       18.1079645051        2.6553310419
  C        41.8772101120       17.1579090008        5.1969864404
  C        41.8821068773       17.1617987408        6.6184999612
  C        43.0905201737       17.2568879493        7.3781157027
  C        20.3162979963       17.9166148819        7.3289177130
  C        20.2943344935       17.8904004021        4.5158259966
  C        46.7862289727       17.2317396039       13.8847186562
  C        45.4824560238       17.1295140307       13.1703725512
  C        45.2615066592       16.1359540886       12.2048839092
  C        44.0732648100       16.1162260464       11.4789081956
  C        43.0775760392       17.0868828649       11.7022237299
  C        43.2881984977       18.0490404776       12.7072311168
  C        44.4776063690       18.0754257597       13.4278405050
  C        41.8326464560       17.1180346858       10.9044914999
  C        41.8595075015       17.1398063973        9.4839435473
  C        43.0798539062       17.2435919537        8.7445640448
  C        46.1532488497       26.6371657874        8.7212229898
  C        46.1625930017       26.6561572538       11.5308553637
  C        14.0457865876       17.8320115302       13.7038669027
  C        15.3669038453       17.9069385257       13.0141395911
  C        15.6394553260       18.9211319186       12.0839254184
  C        16.8685675017       18.9585936425       11.4293913547
  C        17.8527919515       17.9810835099       11.6792780934
  C        17.5872907881       16.9963163707       12.6481441777
  C        16.3601368322       16.9581889756       13.3060810289
  C        19.1198461383       17.9554675633       10.9100964232
  C        19.0950736517       17.9279078005        9.4887362409
  C        17.8751645390       17.8164087634        8.7485132909
  C        28.8069566496       14.0905377193        2.3971599604
  C        28.1926758231       12.9167260429        3.0841116805
  C        28.9156923110       12.1721317851        4.0274888150
  C        28.3148678439       11.0977501939        4.6785396876
  C        26.9768562550       10.7446575576        4.4105321808
  C        26.2754854393       11.4693782686        3.4304216058
  C        26.8743689763       12.5437375676        2.7773893663
  C        26.3073707310        9.6656079783        5.1722951403
  C        26.2978712355        9.6915903072        6.5933144716
  C        26.8046196597       10.8036863522        7.3382241299
  C        32.1765143921       21.2397368816        2.1488807482
  C        32.7725466876       22.4072348334        2.8673949568
  C        32.0234973405       23.0897934280        3.8381193691
  C        32.5954774231       24.1284543156        4.5668841538
  C        33.9320853839       24.5126680531        4.3449355303
  C        34.6635538324       23.8492882754        3.3419619093
  C        34.0937967280       22.8051022335        2.6154904601
  C        34.5624165092       25.5872564967        5.1455032598
  C        34.5558099312       25.5577521204        6.5669801484
  C        34.0445217170       24.4434193069        7.3045011739
  C        25.6891621084        8.6140744034        7.3133914911
  C        25.6691091214        8.6153324794        4.5000401892
  C        32.1021690460       21.2219954085       13.8757447248
  C        32.6947707201       22.3709451954       13.1265883402
  C        31.9609597893       23.0326637154       12.1301030309
  C        32.5424482112       24.0631607443       11.3946206271
  C        33.8714802449       24.4620353412       11.6377864287
  C        34.5884635791       23.8129139637       12.6610009466
  C        34.0116034956       22.7771581051       13.3915378283
  C        34.5121858931       25.5446290836       10.8557221243
  C        34.5295388287       25.5361854907        9.4339973924
  C        34.0314458856       24.4334230299        8.6709931068
  C        40.6229632894       17.1445659442        8.7594161249
  C        40.6016784232       17.1437336539       11.5690028287
  C        28.7505538845       14.0701743317       13.8125184102
  C        28.1410040065       12.9221748357       13.0730806052
  C        28.8775497213       12.2256227784       12.1029763331
  C        28.2976475995       11.1683436783       11.4052193773
  C        26.9650196463       10.7812300343       11.6528780952
  C        26.2455059010       11.4661072255       12.6496626878
  C        26.8240087749       12.5238034419       13.3488948182
  C        26.3225197350        9.6898493453       10.8815362801
  C        26.3072568761        9.7037389394        9.4598475429
  C        26.8071284747       10.8105564369        8.7040500890
  C        18.1354576483        3.1810814700        2.3223122904
  C        17.4062482581        4.2783249063        3.0209582562
  C        16.3903773387        3.9999933403        3.9483210945
  C        15.7426858143        5.0400048998        4.6117858261
  C        16.0947462104        6.3837093290        4.3722204592
  C        17.0842806595        6.6532028970        3.4086042179
  C        17.7333526688        5.6158363736        2.7435661702
  C        15.4704266990        7.4913982716        5.1352725518
  C        15.4855768471        7.4906245868        6.5569835909
  C        16.1870714710        6.4969677841        7.3101524138
  C        42.9459187750       31.8595880348        2.0779988090
  C        43.6463109147       30.7718980486        2.8219746518
  C        44.5917193862       31.0932230211        3.8081554638
  C        45.1974270819       30.0876801119        4.5558328240
  C        44.8711048226       28.7346094838        4.3408728318
  C        43.9454293318       28.4202541593        3.3275278011
  C        43.3366138708       29.4254023017        2.5794925836
  C        45.4886567514       27.6552963848        5.1440647870
  C        45.4927328834       27.6808545163        6.5657587344
  C        44.8056242889       28.6888837180        7.3123888208
  C        14.8565955136        8.5631061330        7.2693415697
  C        14.8752750048        8.5632340758        4.4566767783
  C        42.9464919113       31.9616521074       13.8038984482
  C        43.6917766728       30.8855080945       13.0904353257
  C        44.6562868895       31.1914150687       12.1180567545
  C        45.2778190777       30.1718215682       11.4003365999
  C        44.9541558490       28.8214985555       11.6380823959
  C        44.0207971901       28.5238418121       12.6489788458
  C        43.3925256578       29.5406095165       13.3611458887
  C        45.5631469536       27.7240821313       10.8528208237
  C        45.5332995769       27.7173267082        9.4315252296
  C        44.8269053042       28.7075111285        8.6785745959
  C        35.1381053837       26.6276329869        8.7304131302
  C        35.1213636097       26.6031525797       11.5402535108
  C        18.1485832819        3.2470631578       13.7014452280
  C        17.4299452500        4.3438565654       12.9922324958
  C        16.4146223513        4.0525859102       12.0687821165
  C        15.7663181846        5.0832226091       11.3934068107
  C        16.1211224160        6.4284428314       11.6160345111
  C        17.1126254757        6.7118348299       12.5731625473
  C        17.7602967289        5.6829098607       13.2529127150
  C        15.4906305116        7.5241338059       10.8435784484
  C        15.4964945403        7.5074756571        9.4224445313
  C        16.1932397615        6.5057536746        8.6757560290
  H        10.6723364618       12.4654820134       11.8997931099
  H        11.6946242888       10.5506720759       10.6579112603
  H        15.3920241689       11.1691546728       12.7666348636
  H        14.3515766555       13.0719321894       14.0117758695
  H        13.3762530002       11.6312186667        9.1962843794
  H        50.3228986427       22.7483235333       11.9815628240
  H        49.3197517839       24.6228062470       10.6755813511
  H        45.6425509795       24.1615626910       12.8589898420
  H        46.6635175815       22.2905774188       14.1672208341
  H        47.6299372170       23.5759189742        9.2411449945
  H        14.8723125155        8.5884152407       12.6034987265
  H        50.2871382530       22.7026371581        4.0655959486
  H        49.2691439964       24.5754721378        5.3656688098
  H        45.6107506319       24.1095494804        3.1509039310
  H        46.6529346746       22.2542240547        1.8366116018
  H        47.6078500631       23.5518572917        6.8020076504
  H        40.6611176161       17.1355344210        3.4288735235
  H        48.6871402332       14.0950106844       15.7949519676
  H        10.6813560984       12.4663902210        4.0981173457
  H        11.6897504804       10.5244994864        5.3018422351
  H        15.3940328699       11.1596539901        3.2112547397
  H        14.3654526321       13.0880091871        1.9960033929
  H        13.3760007331       11.6222508361        6.7582669295
  H        47.9302866120       14.2183824069        1.7160450990
  H        47.7801067573       14.3738686693       14.4902120059
  H        49.0846001904       18.5528246587        2.8726822148
  H        10.4162965369       14.1342435840        0.0037922378
  H        24.4845554110        3.0284906396       11.9121313829
  H        25.6271212777        4.8875022311       10.6876684712
  H        23.2574085529        7.7549876665       12.8463925444
  H        22.1324528606        5.8863169422       14.0718879656
  H        23.8106506780        5.7941713987        9.2660649306
  H        36.3781846491       32.1844610666       11.9591970865
  H        35.2561561295       30.3578553653       10.6800608461
  H        37.5159139622       27.4376312448       12.8864820162
  H        38.6185774195       29.2770618924       14.1736981938
  H        37.0336922142       29.4439782554        9.2691531997
  H        25.7505512197        8.6092187417       12.6477369828
  H        36.4595298590       32.2412773889        4.1194801889
  H        35.3488802934       30.4223739884        5.4151135364
  H        37.5274437202       27.4874107210        3.1460034186
  H        38.6133452405       29.3181304785        1.8385251291
  H        37.0527053709       29.4646793501        6.8309448253
  H        46.1095113582       26.5877082579        3.3907506466
  H        44.6682943163       35.1162350406       15.8088703924
  H        24.4297727987        3.0408160799        4.0980388620
  H        25.5576229378        4.8811543369        5.3508506070
  H        23.1623641079        7.7683885701        3.2477199268
  H        22.0458051902        5.9160449483        1.9951656429
  H        23.7832017195        5.7958258956        6.8277638493
  H        44.9538723199       34.3904376507        1.7003188216
  H        44.9017867876       34.2067763438       14.4856149616
  H        40.6661319912       33.2092618913        2.8582836917
  H        23.1503672804        1.9580209754        0.0105625260
  H        25.8238579010       19.6467847355       11.9012732696
  H        23.6507539780       19.6952912546       10.6698226884
  H        22.3480558779       16.2258578285       12.8521467183
  H        24.5242721113       16.1946445569       14.0802646545
  H        23.7217176952       17.6638598153        9.2424164939
  H        35.1652006142       15.4488896995       11.9893266317
  H        37.2843410736       15.4243688757       10.6704263519
  H        38.6841921509       18.8386232064       12.8801402172
  H        36.5560613635       18.8468662584       14.1985412851
  H        37.2309084493       17.4153434147        9.2410219613
  H        20.3593245675       17.9845650599       12.6646379486
  H        35.2136648761       15.4500864723        4.0667216095
  H        37.3490867560       15.4049164346        5.3679094299
  H        38.7311636365       18.8499620850        3.1955553448
  H        36.5917402723       18.8752286966        1.8938391945
  H        37.2495212282       17.4135332390        6.7946333914
  H        35.1485291951       26.6843930936        3.3989301145
  H        28.5045134663       21.0632178420       15.9616651999
  H        25.7498359083       19.6323821574        4.1607308391
  H        23.5659342642       19.6849742625        5.3787095352
  H        22.2973314576       16.1776451908        3.2376279576
  H        24.4821692763       16.1465745779        2.0170437272
  H        23.6993720311       17.6474588338        6.7997141685
  H        29.0269206890       21.7076018159        1.7502130947
  H        29.1826519731       21.7245957445       14.6310029564
  H        32.0876636768       18.5729927640        2.9948953544
  H        27.3728613932       19.0172041064        0.0797894790
  H        14.8474577703       19.6450495808        4.1488684221
  H        17.0094145669       19.6890496103        5.3931636286
  H        18.3020555223       16.1864110607        3.2580977468
  H        16.1359310647       16.1577099651        2.0137298924
  H        16.9199752749       17.6901367414        6.8555794953
  H        46.0954363536       15.4584883001        4.0877324968
  H        43.9728742083       15.4187883331        5.4018733672
  H        42.5652757719       18.8420141399        3.2096324888
  H        44.6882341818       18.8568278061        1.8864179480
  H        44.0325263637       17.3712894834        6.8494159267
  H        20.2880804006       17.9213179517        3.4277234567
  H        46.0366317356       15.3945908261       12.0245195315
  H        43.9039881277       15.3461890308       10.7293979100
  H        42.5236450432       18.8021905585       12.8859743859
  H        44.6631672564       18.8376715915       14.1804911140
  H        44.0137458420       17.3464860431        9.2895593049
  H        46.1996122404       26.6827938295       12.6182930008
  H        52.7413261509       21.0626931911        0.1998140712
  H        14.8782078805       19.6736924676       11.8905219797
  H        17.0790424772       19.7478034810       10.7108175977
  H        18.3388145442       16.2355512397       12.8490468226
  H        16.1397537803       16.1847804363       14.0378363223
  H        16.9419876822       17.7075979439        9.2929541039
  H        52.3228604110       21.6734444904       14.2890511702
  H        52.0135623627       21.7023224590        1.5007771383
  H        49.0680975834       18.6079103494       13.1988719700
  H        13.2479628931       19.0160807116       15.9723555445
  H        29.9461677834       12.4505707903        4.2361169840
  H        28.8767662439       10.5184071488        5.4079870815
  H        25.2416803710       11.2062750744        3.2160495217
  H        26.3313608744       13.1249237755        2.0360806495
  H        27.1662699022       11.6719674079        6.7956926700
  H        30.9960673278       22.7805255751        4.0149197403
  H        32.0095241319       24.6577878178        5.3151919665
  H        35.6977990933       24.1373495754        3.1647741603
  H        34.6632967236       22.2670374517        1.8610679372
  H        33.6849272051       23.5779281122        6.7554650580
  H        25.6973085998        8.5960331287        3.4119944738
  H        30.9363481548       22.7216430442       11.9398226938
  H        31.9658592767       24.5787878513       10.6296532535
  H        35.6172313266       24.1098505041       12.8544302120
  H        34.5692549099       22.2543116332       14.1651585450
  H        33.6617852322       23.5598260831        9.2001859765
  H        40.5934283100       17.1012283129       12.6564653362
  H        32.5036478571       14.1543797554        0.2625292645
  H        29.9065182605       12.5262348808       11.9178184829
  H        28.8765855657       10.6225068687       10.6632647839
  H        25.2143776470       11.1803446558       12.8474123834
  H        26.2656774996       13.0683081152       14.1067684979
  H        27.1693473503       11.6842471911        9.2379304836
  H        33.3111998921       14.2318899813       14.4671936174
  H        33.4081466987       14.4168364414        1.6014314647
  H        32.0944695864       18.4960789889       13.1990881121
  H        30.2216635193       14.1933513621        0.0807581822
  H        16.1182071853        2.9635057467        4.1346208630
  H        14.9531142824        4.8206698787        5.3273187748
  H        17.3668755284        7.6860569682        3.2155938594
  H        18.5155285610        5.8184808995        2.0158563383
  H        16.7536656763        5.7396504176        6.7766682275
  H        44.8279294939       32.1403144418        3.9823904276
  H        45.9372331130       30.3414493956        5.3118308158
  H        43.6828814114       27.3781688584        3.1572813935
  H        42.6001241437       29.1900821328        1.8146960975
  H        44.2303057127       29.4366734353        6.7740775514
  H        14.8516596590        8.5465862675        3.3684476975
  H        44.8997630308       32.2341039987       11.9265368654
  H        46.0246748603       30.4130514661       10.6470473916
  H        43.7640043750       27.4841001389       12.8406991492
  H        42.6461491489       29.3178485220       14.1197202202
  H        44.2684488488       29.4704321679        9.2131658888
  H        35.0774462141       26.6155421965       12.6276734830
  H        36.6051348666       35.1340966686        0.1857223942
  H        16.1434298528        3.0130281052       11.8991464926
  H        14.9738988937        4.8564279809       10.6834107127
  H        17.3962784354        7.7472906733       12.7499258747
  H        18.5433222556        5.8933929149       13.9775059728
  H        16.7646665807        5.7555232994        9.2142133599
  H        36.2785303550       34.4826265088       14.2679725204
  H        36.3808565833       34.2092547909        1.5047452123
  H        40.5804409495       33.2028228254       13.1483054609
  H        17.4708388587        1.9478391802       15.9689725856
  H        29.0585011756       19.3810822125        4.5425894400
  H        29.9135743613       19.6964464601       11.6183953761
  H        32.0836883573       15.9070324123       11.6144773149
  H        30.9621882269       15.5486677657        4.4603629458
  H        27.8883614432       18.2482155838        6.8080330784
  H        29.1444165453       15.4832632631        6.5948140858
  H        31.7621484283       19.9974210760        9.4630295617
  H        33.0368975964       17.2359110049        9.2629705541
  H        28.7866370545       16.8741719339        9.3676909755
  H        18.8531890150        0.8688976920        4.3403655221
  H        40.5281965600       35.2292214571       11.9469118436
  H        42.3244039739       34.4193027159       11.5851298271
  H        22.0875399134        0.6921597136        4.3567547202
  H        11.5967818735       18.7128674499        4.3877571037
  H        52.2648822498       18.4313020230       11.6719515104
  H        49.2552831436       16.4768652278       11.5793385632
  H        10.1497989560       15.7982563729        4.2980644889
  H        50.8501693402       17.6924061758       11.9491013015
  H        10.0459494794       17.3945353796        4.0570435168
  H        20.2144400471        0.0021490019        4.0471377839
  H        39.1839453300       36.1247816329       11.6814581726
 Ni        30.9433857573       17.7642971113       10.6660825256
 Ni        31.0741397931       16.3181652851        7.9946774029
 Ni        29.8858667545       18.9652708695        8.1593367124
 Ni        30.1364179427       17.5076864588        5.4093526233
  O        10.6499381315       14.3650940669       13.4807415380
  O        12.6131638816       14.6575020406       14.5787922728
  O        49.1481289774       16.8458301185       15.9845819636
  O        50.3503350163       20.9357873345       13.6428801102
  O        48.3486233169       20.5933555688       14.6608040027
  O        11.0518661760       17.0537732878       14.4956064140
  O        50.3210387417       20.8817028737        2.4119708492
  O        48.3467678088       20.5868195905        1.3322514015
  O        49.5438868328       18.2484039365        2.0733349352