     576
 i =      169, E =     -4780.0191781902
  C        11.8588507501       14.0534487174       13.7364668199
  C        12.4563627911       12.8906125809       13.0181354488
  C        11.7045357650       12.1713674495       12.0768074164
  C        12.2809457856       11.1091827688       11.3844733519
  C        13.6216519645       10.7396695558       11.6119442351
  C        14.3550122230       11.4436493246       12.5849644878
  C        13.7820930643       12.5086184531       13.2764609564
  C        14.2611360953        9.6489702424       10.8385469612
  C        14.2562432336        9.6567881127        9.4168510057
  C        13.7430302224       10.7589064356        8.6629720058
  C        49.1269938742       21.2331835199       13.8745795305
  C        48.5502467152       22.4012241905       13.1475236984
  C        49.3001729023       23.0683453196       12.1663291895
  C        48.7332503211       24.1075060917       11.4331322265
  C        47.4028317816       24.5093955892       11.6619966748
  C        46.6720175372       23.8607610338       12.6757653471
  C        47.2344599458       22.8158391032       13.4050990064
  C        46.7725169625       25.5870464084       10.8647216695
  C        46.7612957680       25.5573308120        9.4429619765
  C        47.2611764122       24.4422122287        8.6994653604
  C        14.8601755368        8.5704549024        8.7035785544
  C        14.8920655865        8.5971155952       11.5151976097
  C        49.1133355860       21.2034524380        2.1504622380
  C        48.5279465422       22.3648643635        2.8776655135
  C        49.2670660745       23.0253665244        3.8707855376
  C        48.6907424916       24.0599393621        4.6022470418
  C        47.3604314945       24.4569195004        4.3638096904
  C        46.6401694870       23.8122822741        3.3400068466
  C        47.2137210203       22.7763670252        2.6082309399
  C        46.7219269807       25.5318733466        5.1548179460
  C        46.7334800298       25.5281369394        6.5765263496
  C        47.2488782214       24.4289047212        7.3329123515
  C        40.6315380460       17.1432155064        7.3225038730
  C        40.6485452923       17.1679119282        4.5133511586
  C        11.8830585224       14.0865076220        2.2906318395
  C        12.4724544195       12.9108880905        2.9949798237
  C        11.7148680595       12.1773909572        3.9208117392
  C        12.2815148887       11.0949541655        4.5891907774
  C        13.6204847527       10.7215509477        4.3576511793
  C        14.3586042340       11.4375011272        3.3972517222
  C        13.7931083667       12.5186502238        2.7245793531
  C        14.2540256236        9.6247165789        5.1280063493
  C        14.2524871397        9.6445187737        6.5498439533
  C        13.7425254158       10.7534174368        7.2969290239
  C        22.5129572257        3.2449830153       13.7468450801
  C        23.2293374607        4.3485376109       13.0457976479
  C        24.2237698301        4.0649828196       12.0976570108
  C        24.8540504586        5.1018035043       11.4142936928
  C        24.5064193802        6.4454862039       11.6581263701
  C        23.5398236989        6.7204069130       12.6429472984
  C        22.9047378866        5.6853711427       13.3248467243
  C        25.1170538742        7.5498692391       10.8821529923
  C        25.0903789919        7.5439075817        9.4603638555
  C        24.3855061022        6.5474237894        8.7131120132
  C        38.3011596873       31.9279318173       13.8447897265
  C        37.5677340186       30.8375758387       13.1378594034
  C        36.6081632663       31.1412799479       12.1598820658
  C        35.9873689972       30.1210491283       11.4440315778
  C        36.3104358226       28.7711224767       11.6844519175
  C        37.2396456173       28.4748838172       12.6995412830
  C        37.8649187155       29.4939895395       13.4139315773
  C        35.7072448265       27.6794709739       10.8857802810
  C        35.7483604066       27.6919766861        9.4641410649
  C        36.4594215175       28.6924989928        8.7290205154
  C        25.7165592529        8.6128319622        8.7411841435
  C        25.7183686249        8.6224138783       11.5531592197
  C        38.3298890213       31.9616344580        2.1625509967
  C        37.6118031895       30.8867504322        2.9068378363
  C        36.6833719631       31.1928253325        3.9135142946
  C        36.0766421315       30.1726012988        4.6438890953
  C        36.3838082831       28.8206256111        4.3909350654
  C        37.2905762586       28.5244820289        3.3547988068
  C        37.8994793631       29.5411786586        2.6259899244
  C        35.7769046112       27.7195482654        5.1738402635
  C        35.7840467170       27.7125217552        6.5961203210
  C        36.4755799724       28.7028926117        7.3623458698
  C        46.1354314909       26.6207514821        7.2866707530
  C        46.0880883948       26.5803135884        4.4787738333
  C        22.4630488672        3.2566012221        2.2624300330
  C        23.1614342620        4.3644655923        2.9827412192
  C        24.1654526279        4.0767943121        3.9212659579
  C        24.7979051927        5.1057361085        4.6150966899
  C        24.4470608220        6.4527247410        4.3937543078
  C        23.4663634146        6.7335655329        3.4234340572
  C        22.8292858370        5.7048923783        2.7298503368
  C        25.0811073659        7.5494443585        5.1681081122
  C        25.0724522131        7.5431234917        6.5909833362
  C        24.3751887379        6.5480565498        7.3464279956
  C        26.6209934975       17.8600375393       13.7693084197
  C        25.3136594388       17.9118325449       13.0485347461
  C        25.0595459844       18.9011254050       12.0855732885
  C        23.8453177466       18.9231675924       11.4021875176
  C        22.8491261769       17.9590193127       11.6587452570
  C        23.0995787242       16.9933925485       12.6520569581
  C        24.3153618342       16.9658322337       13.3332765119
  C        21.5763320735       17.9428770451       10.8941503740
  C        21.5767278356       17.9152970659        9.4715446388
  C        22.7820608884       17.7844693970        8.7118481824
  C        34.4390574096       17.1934670338       13.9083718260
  C        35.7313905716       17.1457990094       13.1644389358
  C        35.9374671294       16.1820398260       12.1650007758
  C        37.1179853396       16.1742858694       11.4276388494
  C        38.1252920181       17.1279967871       11.6716931069
  C        37.9224651411       18.0714873383       12.6966160110
  C        36.7385779101       18.0856582584       13.4300539482
  C        39.3796647983       17.1404320414       10.8864097917
  C        39.3749109887       17.1589773640        9.4650586939
  C        38.1678100524       17.2831950128        8.7075789019
  C        20.3301664368       17.9332281409        8.7627884029
  C        20.3512817501       17.9477199832       11.5760578879
  C        34.4668347977       17.2465665781        2.1855298164
  C        35.7671706985       17.1745606941        2.9136850991
  C        35.9821314828       16.1924487785        3.8918754596
  C        37.1695644316       16.1745522626        4.6181935571
  C        38.1699600691       17.1380084666        4.3850109938
  C        37.9609898267       18.0956180763        3.3753909717
  C        36.7715352969       18.1185891086        2.6524366317
  C        39.4179250893       17.1570372154        5.1785835418
  C        39.3946529381       17.1683670731        6.5993542079
  C        38.1769105270       17.2862587377        7.3410429203
  C        35.1513819462       26.6335406039        7.2983051132
  C        35.1882585404       26.6487526308        4.4888741252
  C        26.5701860945       17.8256980023        2.3303138714
  C        25.2565125561       17.8696509492        3.0379552070
  C        24.9926041900       18.8729435618        3.9824580697
  C        23.7749995536       18.8973609501        4.6564868649
  C        22.7917151013       17.9186856176        4.4090634536
  C        23.0499020400       16.9401301126        3.4321409919
  C        24.2686276151       16.9132190440        2.7569899532
  C        21.5280524352       17.9003047197        5.1818262255
  C        21.5517897043       17.8920298964        6.6034121164
  C        22.7698206131       17.7733787457        7.3455620928
  C        14.0468954966       17.8288527145        2.2940552072
  C        15.3510110922       17.8857841644        3.0191434737
  C        15.6075687260       18.8883537852        3.9675393937
  C        16.8164234982       18.9086479448        4.6605644381
  C        17.8031348320       17.9291822444        4.4276999844
  C        17.5514029037       16.9511353126        3.4469068505
  C        16.3420618891       16.9262089630        2.7553689135
  C        19.0719294421       17.9113747769        5.1969502998
  C        19.0703503996       17.9102614934        6.6194616639
  C        17.8632090298       17.8137616485        7.3807761796
  C        46.8060909314       17.2194878094        2.1638686039
  C        45.5165792690       17.1611255997        2.9101515848
  C        45.3094631473       16.1868696221        3.8986631440
  C        44.1280477678       16.1739371203        4.6352231515
  C        43.1249862313       17.1354025712        4.4043591204
  C        43.3292667175       18.0890427926        3.3891011128
  C        44.5113396827       18.1059480963        2.6538128579
  C        41.8722901176       17.1520460267        5.1924695104
  C        41.8782485915       17.1540548505        6.6141517577
  C        43.0872834628       17.2478197373        7.3729312208
  C        20.3170181866       17.9207694878        7.3279708099
  C        20.2962125761       17.8898125918        4.5149312768
  C        46.7861841618       17.2318355217       13.8839429712
  C        45.4830587625       17.1287037347       13.1678937223
  C        45.2639404725       16.1339473682       12.2031378751
  C        44.0761389688       16.1115430364       11.4764061603
  C        43.0787463616       17.0808018352       11.6980255214
  C        43.2879194906       18.0448365865       12.7016379842
  C        44.4768744921       18.0737746422       13.4231422280
  C        41.8331478290       17.1084713751       10.9008217142
  C        41.8584540318       17.1298837612        9.4800979487
  C        43.0779985780       17.2337656404        8.7394791663
  C        46.1532269749       26.6371916964        8.7212251371
  C        46.1626924991       26.6562369841       11.5308574930
  C        14.0458212861       17.8324107825       13.7038419870
  C        15.3666601435       17.9087448242       13.0140460045
  C        15.6379144664       18.9238613758       12.0843944753
  C        16.8666816654       18.9630121164       11.4293655147
  C        17.8519770785       17.9862878005       11.6781040284
  C        17.5876867223       17.0005446225       12.6464029734
  C        16.3609098512       16.9607590058       13.3049292966
  C        19.1190139098       17.9623384444       10.9088828769
  C        19.0949235497       17.9353649814        9.4874450417
  C        17.8752241397       17.8248477444        8.7467877240
  C        28.8157655015       14.0865435970        2.3699389257
  C        28.2101354047       12.9145991439        3.0665312914
  C        28.9373124766       12.1767107499        4.0119615503
  C        28.3411360446       11.1031083659        4.6696893232
  C        27.0044475137       10.7418811164        4.4046722339
  C        26.2989813027       11.4608124508        3.4229833584
  C        26.8919609991       12.5354235176        2.7654326227
  C        26.3371595514        9.6608320631        5.1670915967
  C        26.3237072057        9.6863460386        6.5882588004
  C        26.8273551954       10.7987131180        7.3346018037
  C        32.1799260254       21.2344359953        2.1475294863
  C        32.7804686351       22.3946802227        2.8727209326
  C        32.0341917715       23.0758096769        3.8466612471
  C        32.6076127245       24.1151951437        4.5732540868
  C        33.9430160539       24.5018975391        4.3471563536
  C        34.6721825502       23.8383247702        3.3425492210
  C        34.1010527601       22.7935981205        2.6178237864
  C        34.5731518806       25.5778923312        5.1466725302
  C        34.5632095692       25.5493640961        6.5682072645
  C        34.0550836351       24.4330246988        7.3045721808
  C        25.7116714069        8.6089461761        7.3063342482
  C        25.6992978016        8.6108267725        4.4930326013
  C        32.0813761620       21.1923543066       13.8338925329
  C        32.6639159046       22.3531045841       13.0971450324
  C        31.9409909509       23.0048370014       12.0859451389
  C        32.5216560849       24.0461557310       11.3648905615
  C        33.8403766583       24.4645253978       11.6334326189
  C        34.5438794896       23.8272890786       12.6734941250
  C        33.9674323952       22.7836023906       13.3921009654
  C        34.4874193403       25.5472818922       10.8566171643
  C        34.5184875453       25.5339284159        9.4348435836
  C        34.0330999887       24.4261610549        8.6708282984
  C        40.6212321554       17.1345218665        8.7565329853
  C        40.6026689468       17.1320629356       11.5662786851
  C        28.7505935005       14.0673290122       13.8081121027
  C        28.1459853557       12.9180804862       13.0711736238
  C        28.8818636738       12.2270626341       12.0964545881
  C        28.3042484521       11.1682619738       11.3996942141
  C        26.9741967466       10.7747927251       11.6508386358
  C        26.2558149674       11.4535974642       12.6530133480
  C        26.8319635790       12.5121517372       13.3523524480
  C        26.3328539141        9.6846587502       10.8767908461
  C        26.3224657115        9.6989977494        9.4546877312
  C        26.8242888559       10.8060939863        8.7004870044
  C        18.1355689517        3.1811469341        2.3222765008
  C        17.4063135216        4.2783528819        3.0208568442
  C        16.3903335521        4.0000336269        3.9481202391
  C        15.7426353929        5.0400367022        4.6115869271
  C        16.0948788132        6.3837388239        4.3722176489
  C        17.0845676679        6.6532310666        3.4087603775
  C        17.7336468744        5.6158665019        2.7437210228
  C        15.4704447835        7.4913884672        5.1352604577
  C        15.4854936356        7.4905330121        6.5569778507
  C        16.1870072018        6.4968827067        7.3101414827
  C        42.9458961121       31.8596666620        2.0779817477
  C        43.6463173899       30.7719546479        2.8219556038
  C        44.5916103278       31.0933075843        3.8082330999
  C        45.1973415050       30.0877720085        4.5559104924
  C        44.8711746854       28.7346778288        4.3408660579
  C        43.9456554316       28.4203145895        3.3273744029
  C        43.3368216232       29.4254431506        2.5793251823
  C        45.4887285901       27.6553563903        5.1440513286
  C        45.4927535972       27.6808987145        6.5657491201
  C        44.8056503652       28.6889258822        7.3123880032
  C        14.8564415072        8.5629619430        7.2693596182
  C        14.8753634943        8.5632790161        4.4566828505
  C        42.9465354655       31.9617648771       13.8039013928
  C        43.6918720097       30.8855968197       13.0904728332
  C        44.6562414542       31.1915181678       12.1179664077
  C        45.2777866747       30.1719327949       11.4002412578
  C        44.9542703144       28.8215959755       11.6380977748
  C        44.0210703127       28.5239283986       12.6491427886
  C        43.3927894556       29.5406894812       13.3613172697
  C        45.5632342681       27.7241642704       10.8528327147
  C        45.5333119078       27.7173713608        9.4315356096
  C        44.8269550303       28.7075730765        8.6785731803
  C        35.1309420519       26.6245205664        8.7332243272
  C        35.0938221231       26.6068351640       11.5432870505
  C        18.1487840208        3.2470802937       13.7014364713
  C        17.4302318419        4.3438678133       12.9921833906
  C        16.4147238744        4.0526168989       12.0689139548
  C        15.7664101635        5.0832637841       11.3935766816
  C        16.1214030137        6.4284728527       11.6159902895
  C        17.1131599881        6.7118371289       12.5728572784
  C        17.7608584758        5.6829140949       13.2525903631
  C        15.4907667414        7.5241268213       10.8435870303
  C        15.4964533313        7.5073835303        9.4224542107
  C        16.1932050644        6.5056784960        8.6757483422
  H        10.6723045315       12.4652596577       11.9000124352
  H        11.6946023582       10.5504441566       10.6581773668
  H        15.3922189815       11.1694650354       12.7663246733
  H        14.3517878987       13.0722001506       14.0114433850
  H        13.3761049566       11.6310567945        9.1962999278
  H        50.3228026104       22.7481331599       11.9814290717
  H        49.3197023979       24.6226333556       10.6754321856
  H        45.6426649448       24.1618408750       12.8592133964
  H        46.6636106243       22.2907969773       14.1674519730
  H        47.6298170643       23.5758800714        9.2411537199
  H        14.8727260416        8.5885371482       12.6035110484
  H        50.2870404527       22.7023499114        4.0658208066
  H        49.2691046508       24.5752486802        5.3658735935
  H        45.6108953848       24.1098163669        3.1506935999
  H        46.6530562806       22.2544165379        1.8364106110
  H        47.6077352392       23.5518197100        6.8020106907
  H        40.6542916503       17.1333563152        3.4256071899
  H        48.6871851024       14.0950415382       15.7949844581
  H        10.6812797155       12.4661848760        4.0979618428
  H        11.6896824632       10.5242862467        5.3016313760
  H        15.3942183893       11.1600404824        3.2116869376
  H        14.3656637270       13.0883467795        1.9964733650
  H        13.3758335126       11.6220974953        6.7583072680
  H        47.9302680634       14.2186280404        1.7160724985
  H        47.7801272418       14.3740945569       14.4903393509
  H        49.0844839310       18.5526747286        2.8727134889
  H        10.4164116482       14.1342637306        0.0038733250
  H        24.4808320464        3.0254652341       11.9066650583
  H        25.6252912037        4.8805674014       10.6796684021
  H        23.2633939095        7.7544579265       12.8383176729
  H        22.1366953894        5.8897077148       14.0668590730
  H        23.8215425652        5.7920733730        9.2525764760
  H        36.3739900404       32.1846792581       11.9622238609
  H        35.2439803246       30.3611963569       10.6870379842
  H        37.4972720215       27.4355981149       12.8929442233
  H        38.6082454515       29.2722240097       14.1760782856
  H        37.0225143797       29.4423611083        9.2770227249
  H        25.7535031517        8.6045616592       12.6409753075
  H        36.4577281668       32.2364386637        4.1209634201
  H        35.3509085564       30.4159095717        5.4167757712
  H        37.5401629475       27.4849651167        3.1526485352
  H        38.6218468672       29.3173138687        1.8448199497
  H        37.0520631160       29.4604461306        6.8391447961
  H        46.1097231972       26.5878435384        3.3907426743
  H        44.6683543532       35.1162924595       15.8088807604
  H        24.4410138619        3.0380312827        4.0887034768
  H        25.5795544907        4.8749138645        5.3357480175
  H        23.1835641022        7.7686617891        3.2428065828
  H        22.0565134932        5.9200023103        1.9954166707
  H        23.8028398900        5.7936764638        6.8144275266
  H        44.9539495421       34.3905439274        1.7004076192
  H        44.9018736270       34.2068584718       14.4856187805
  H        40.6664829569       33.2095549875        2.8583900287
  H        23.1504661886        1.9583491627        0.0099976843
  H        25.8266673996       19.6457283830       11.8861515596
  H        23.6537797230       19.6956807193       10.6605240603
  H        22.3426847667       16.2396454087       12.8593281881
  H        24.5196181036       16.2052344496       14.0831884224
  H        23.7226402079       17.6610938937        9.2409317163
  H        35.1568823720       15.4490718627       11.9760905419
  H        37.2772751754       15.4194090640       10.6607243825
  H        38.6928483373       18.8153605305       12.8891655389
  H        36.5650598257       18.8283459656       14.2053550082
  H        37.2291215365       17.4055567814        9.2401539109
  H        20.3577939090       17.9914230540       12.6637850668
  H        35.2003579597       15.4599096806        4.0783098999
  H        37.3365097607       15.4097618437        5.3735640405
  H        38.7276968898       18.8454112140        3.1914673511
  H        36.5877576454       18.8745621388        1.8927115513
  H        37.2452279255       17.4098947593        6.7964630338
  H        35.1618774814       26.6759292795        3.4011648872
  H        28.4969879032       21.0748305395       15.8752986673
  H        25.7545697258       19.6256590721        4.1709575231
  H        23.5703312758       19.6790100831        5.3848556863
  H        22.2991622509       16.1774136531        3.2356770508
  H        24.4843653501       16.1455462034        2.0177282078
  H        23.7010134340       17.6418540377        6.8025045246
  H        29.0165247356       21.7140459003        1.7417373008
  H        29.1949298475       21.7154778441       14.5646648476
  H        32.0994620847       18.5542733069        2.9136475671
  H        27.3732150711       19.0264089182        0.0671495519
  H        14.8491843709       19.6473344935        4.1462105980
  H        17.0116158872       19.6923826377        5.3893806895
  H        18.3027649421       16.1871627860        3.2577879781
  H        16.1364451645       16.1576551807        2.0140812922
  H        16.9206371618       17.6977791313        6.8537364466
  H        46.0912604919       15.4537184613        4.0827814252
  H        43.9671202896       15.4109951472        5.3936948492
  H        42.5623765260       18.8391116803        3.2072556888
  H        44.6866884254       18.8564855233        1.8866744994
  H        44.0289239959       17.3621343408        6.8435549546
  H        20.2905241174       17.9190206465        3.4267778971
  H        46.0401171000       15.3933585246       12.0241771322
  H        43.9085544418       15.3401639926       10.7278863940
  H        42.5223566683       18.7973181903       12.8789126465
  H        44.6607953638       18.8372387996       14.1750057467
  H        44.0125098145       17.3361371016        9.2835094880
  H        46.1998082251       26.6829273895       12.6182911710
  H        52.7413280724       21.0626613420        0.1997964705
  H        14.8758641430       19.6758213108       11.8918450998
  H        17.0761214466       19.7529950371       10.7113381630
  H        18.3400015775       16.2403049406       12.8463127743
  H        16.1416390333       16.1866000057       14.0362178397
  H        16.9416586506       17.7173761099        9.2908088171
  H        52.3226935963       21.6734081432       14.2891362352
  H        52.0134306837       21.7022171785        1.5007086686
  H        49.0682629925       18.6078830315       13.1987615115
  H        13.2480213352       19.0159648467       15.9723502240
  H        29.9667878916       12.4602491031        4.2190128889
  H        28.9066079130       10.5310748579        5.4021263848
  H        25.2659407019       11.1929809630        3.2109092315
  H        26.3437692110       13.1115796302        2.0241608974
  H        27.1901937186       11.6683461438        6.7949408365
  H        31.0080169985       22.7652529409        4.0280474790
  H        32.0233540294       24.6432372584        5.3237339501
  H        35.7057871727       24.1267079867        3.1622502350
  H        34.6694567094       22.2567388089        1.8618099548
  H        33.7053984034       23.5631730982        6.7559895744
  H        25.7292956224        8.5924084947        3.4049934230
  H        30.9263908669       22.6770069329       11.8715450395
  H        31.9528871519       24.5531218754       10.5884308252
  H        35.5640200944       24.1385632825       12.8887098079
  H        34.5170987843       22.2716784130       14.1783636299
  H        33.6669967686       23.5501364736        9.1982125062
  H        40.5956914637       17.0892295777       12.6537439016
  H        32.5114778500       14.1411497598        0.2511075430
  H        29.9070677918       12.5340750751       11.9027810338
  H        28.8827646897       10.6285872378       10.6530621047
  H        25.2265527215       11.1634258544       12.8538427936
  H        26.2731035385       13.0519230359       14.1131045570
  H        27.1829695589       11.6819794763        9.2332470780
  H        33.3122131085       14.2320407275       14.4633926946
  H        33.4112377659       14.4110557712        1.5982016609
  H        32.0865521303       18.4847550190       13.1255012195
  H        30.2292804021       14.1885721284        0.0729259281
  H        16.1180395000        2.9635566399        4.1343102094
  H        14.9530011834        4.8207187672        5.3270606821
  H        17.3674006242        7.6860610662        3.2159836688
  H        18.5160074291        5.8185643929        2.0162318754
  H        16.7537025094        5.7396476391        6.7766399039
  H        44.8277096584       32.1404135344        3.9825513732
  H        45.9370585286       30.3415908263        5.3119806743
  H        43.6832828069       27.3782038993        3.1570132801
  H        42.6004987690       29.1901105726        1.8143761141
  H        44.2304000622       29.4367689238        6.7740784017
  H        14.8519476223        8.5467352453        3.3684525282
  H        44.8996159782       32.2342143902       11.9263668580
  H        46.0245626923       30.4132049166       10.6468874015
  H        43.7644576452       27.4841663248       12.8409978861
  H        42.6465561022       29.3179240964       14.1200331224
  H        44.2685623638       29.4705402627        9.2131627546
  H        35.0421527540       26.6223233228       12.6303640885
  H        36.6053279909       35.1340862562        0.1857864273
  H        16.1433952540        3.0130695896       11.8994270289
  H        14.9738745963        4.8564958623       10.6837037607
  H        17.3970928161        7.7472536932       12.7493741829
  H        18.5441309663        5.8934054044       13.9769148752
  H        16.7647624021        5.7555226715        9.2141740123
  H        36.2790086357       34.4822224421       14.2679830044
  H        36.3814973605       34.2089331181        1.5046091081
  H        40.5801939952       33.2027249180       13.1483000894
  H        17.4713401932        1.9479929453       15.9690043062
  H        29.0118768223       19.2902191411        4.4491417042
  H        29.6046020563       19.4536588567       11.4708571366
  H        31.9019112062       15.8181746851       11.4934925975
  H        31.2905083511       15.6483882028        4.4406710863
  H        28.3235527233       17.6341746816        6.6727971945
  H        29.6192964006       15.7729828473        6.7176713724
  H        31.5165613493       19.6023746536        9.2961453169
  H        32.9382476096       17.5083025341        9.3645372716
  H        29.3683066936       16.8038685957        9.4361215617
  H        18.8532422845        0.8689144684        4.3402536017
  H        40.5280318299       35.2287903010       11.9468447312
  H        42.3247747883       34.4195288272       11.5848717939
  H        22.0873138455        0.6922093198        4.3566804716
  H        11.5969131080       18.7128253568        4.3876834283
  H        52.2644666914       18.4314100875       11.6717502674
  H        49.2550093223       16.4767882276       11.5795377085
  H        10.1504728417       15.7982340623        4.2977675256
  H        50.8499113125       17.6923345400       11.9490860038
  H        10.0462937454       17.3946124649        4.0570161191
  H        20.2145533778        0.0021358756        4.0470537674
  H        39.1837811317       36.1244578866       11.6815164680
 Ni        31.0281975572       17.8156473243       10.7485776725
 Ni        31.4462247276       16.4069029730        7.8328398816
 Ni        29.7627511270       18.8364281348        7.9925046584
 Ni        30.1012015698       17.4267508560        5.0844556652
  O        10.6499578692       14.3650963591       13.4807582813
  O        12.6131858269       14.6575043607       14.5787872624
  O        49.1480500621       16.8458244852       15.9846275668
  O        50.3503134749       20.9358180701       13.6428977808
  O        48.3485782105       20.5933442289       14.6607851867
  O        11.0519354015       17.0536882080       14.4956432572
  O        50.3210326781       20.8816664672        2.4119727605
  O        48.3467679748       20.5867842265        1.3322695661
  O        49.5438132476       18.2483585136        2.0733524646