     574
 i =      316, E =     -4778.9153953800
  C        11.8585979137       14.0536036476       13.7365011645
  C        12.4560816717       12.8905494847       13.0182474747
  C        11.7044746081       12.1718935688       12.0763241771
  C        12.2808019089       11.1096621183       11.3839624313
  C        13.6212484635       10.7395815455       11.6119667569
  C        14.3543065814       11.4428489949       12.5857367408
  C        13.7814585338       12.5078503436       13.2772465834
  C        14.2608028495        9.6489385311       10.8385672515
  C        14.2562388530        9.6568985078        9.4168618253
  C        13.7432039747       10.7590776038        8.6629423104
  C        49.1265130582       21.2333146920       13.8746478962
  C        48.5496596072       22.4011117354       13.1475206056
  C        49.2998381390       23.0687653080       12.1668491277
  C        48.7328624950       24.1078539253       11.4336347589
  C        47.4021459177       24.5091191915       11.6619153691
  C        46.6709791597       23.8598365166       12.6750069867
  C        47.2334838169       22.8149792170       13.4043937341
  C        46.7719825401       25.5868498234       10.8646202930
  C        46.7612532040       25.5573565742        9.4428563046
  C        47.2612447630       24.4422718603        8.6993934340
  C        14.8602044454        8.5705640924        8.7036083720
  C        14.8914478523        8.5969090183       11.5152247737
  C        49.1131007742       21.2034231570        2.1504707652
  C        48.5277027046       22.3647036810        2.8776312803
  C        49.2669709403       23.0256019981        3.8704065911
  C        48.6905671028       24.0601195125        4.6018431447
  C        47.3600593188       24.4566776051        4.3637374009
  C        46.6395695206       23.8115287720        3.3404253344
  C        47.2131932428       22.7756547878        2.6086519102
  C        46.7216384947       25.5316740895        5.1547434711
  C        46.7335324530       25.5281479111        6.5764436229
  C        47.2489959412       24.4289583453        7.3328420058
  C        40.6199672261       17.0859615697        7.3158016186
  C        40.6304258717       17.1046200928        4.5059566527
  C        11.8828582617       14.0865615089        2.2905453193
  C        12.4721658931       12.9106390361        2.9947387119
  C        11.7147585221       12.1777062161        3.9211370722
  C        12.2813159021       11.0952531482        4.5895996658
  C        13.6200090305       10.7212364020        4.3575243499
  C        14.3578288901       11.4364717344        3.3963509865
  C        13.7924258058       12.5176389308        2.7236224496
  C        14.2536227082        9.6245149538        5.1279788251
  C        14.2524797444        9.6445624440        6.5498249730
  C        13.7426749827       10.7535475164        7.2968956297
  C        22.5112524126        3.2447235830       13.7470662215
  C        23.2243179196        4.3501270882       13.0450856338
  C        24.2210476921        4.0696522829       12.0987594242
  C        24.8473241363        5.1086859051       11.4150520183
  C        24.4925973566        6.4506678166       11.6573197579
  C        23.5235280337        6.7227305372       12.6402726569
  C        22.8927592958        5.6854715704       13.3224707559
  C        25.0991618174        7.5569456590       10.8814707095
  C        25.0750132672        7.5494202210        9.4597012531
  C        24.3754713050        6.5495270828        8.7118502323
  C        38.3017369732       31.9289733873       13.8441585448
  C        37.5705377969       30.8398990574       13.1356909392
  C        36.6103520831       31.1442448387       12.1585156204
  C        35.9916837927       30.1243915595       11.4408063481
  C        36.3182898141       28.7748103886       11.6782784171
  C        37.2482827486       28.4779820124       12.6924641417
  C        37.8710800731       29.4965124488       13.4091073145
  C        35.7167174866       27.6832709323       10.8798203717
  C        35.7493458942       27.6992743336        9.4584023531
  C        36.4533114584       28.7036582132        8.7220354947
  C        25.6991381687        8.6194817379        8.7407999851
  C        25.6947502393        8.6323777317       11.5529613957
  C        38.3287486191       31.9625010378        2.1609965355
  C        37.6069058697       30.8900169095        2.9024051010
  C        36.6790239547       31.1994110198        3.9086121229
  C        36.0688245013       30.1812647855        4.6382813808
  C        36.3724954739       28.8285909968        4.3852462170
  C        37.2778040571       28.5292837574        3.3487177024
  C        37.8900640601       29.5438384305        2.6202007653
  C        35.7651625446       27.7295100865        5.1692366850
  C        35.7740741673       27.7231151186        6.5912393559
  C        36.4648478652       28.7153726054        7.3554691736
  C        46.1355666634       26.6208224148        7.2865464630
  C        46.0875608585       26.5799393096        4.4786623915
  C        22.4620926271        3.2559090200        2.2619185671
  C        23.1592666938        4.3649729418        2.9824107962
  C        24.1657443914        4.0792011402        3.9186328383
  C        24.7964303349        5.1094802312        4.6122091258
  C        24.4407683183        6.4553469142        4.3925207927
  C        23.4573828703        6.7344617644        3.4245959291
  C        22.8223131067        5.7044180155        2.7312859115
  C        25.0720154313        7.5533013452        5.1673174128
  C        25.0620686748        7.5466683518        6.5901852491
  C        24.3674330194        6.5492430081        7.3451323827
  C        26.6154286696       17.8611138300       13.7788446393
  C        25.3078797078       17.9133090321       13.0571962004
  C        25.0488620100       18.9145742798       12.1075670212
  C        23.8364684160       18.9370345710       11.4207063428
  C        22.8466441488       17.9626124383       11.6618502281
  C        23.1013094707       16.9851984459       12.6426818444
  C        24.3155812945       16.9566423942       13.3267639623
  C        21.5746855324       17.9495664088       10.8955558052
  C        21.5761987389       17.9307645089        9.4729460048
  C        22.7829179793       17.8123469191        8.7134993678
  C        34.4369577251       17.1961334235       13.9124049404
  C        35.7299169818       17.1429937391       13.1690369417
  C        35.9341006425       16.1698882372       12.1784005923
  C        37.1145076044       16.1534049573       11.4409949880
  C        38.1229357768       17.1087422541       11.6736809400
  C        37.9215207033       18.0624374140       12.6895661541
  C        36.7382854372       18.0842751108       13.4245985414
  C        39.3759439497       17.1135313834       10.8843760073
  C        39.3680759405       17.1183377744        9.4623004484
  C        38.1589719569       17.2383623842        8.7070320977
  C        20.3300376246       17.9457196060        8.7632963142
  C        20.3493420783       17.9487362186       11.5766979250
  C        34.4388557651       17.2385627579        2.1942942753
  C        35.7401852867       17.1380899584        2.9168523490
  C        35.9494022454       16.1533058399        3.8937245596
  C        37.1396593628       16.1225146077        4.6163502384
  C        38.1504946149       17.0753253732        4.3816907313
  C        37.9480092308       18.0326964020        3.3702084466
  C        36.7569153582       18.0685258775        2.6512167350
  C        39.4005096617       17.0900738274        5.1741331121
  C        39.3806016186       17.1060670066        6.5955614441
  C        38.1651006783       17.2303503624        7.3402401251
  C        35.1464085125       26.6419046564        7.2944716286
  C        35.1773741934       26.6580533318        4.4853028399
  C        26.5741548831       17.8275652854        2.3313201664
  C        25.2596173216       17.8720105204        3.0399419204
  C        24.9882949183       18.8873144348        3.9694996949
  C        23.7705967562       18.9142985530        4.6436510982
  C        22.7936490647       17.9257339410        4.4107745760
  C        23.0589830204       16.9342227474        3.4491281088
  C        24.2778271449       16.9054325068        2.7736987965
  C        21.5291138654       17.9108447463        5.1828067347
  C        21.5525471486       17.9094021523        6.6042597205
  C        22.7711174055       17.8019723647        7.3472268068
  C        14.0466875271       17.8289052518        2.2939648953
  C        15.3513430546       17.8863627163        3.0194920071
  C        15.6093206110       18.8924808602        3.9636646816
  C        16.8183759722       18.9142903087        4.6565059748
  C        17.8038690810       17.9327608006        4.4274871004
  C        17.5505415443       16.9504967266        3.4514373630
  C        16.3409645863       16.9242542368        2.7600189963
  C        19.0729788452       17.9175755804        5.1968144935
  C        19.0711308838       17.9193733836        6.6193399760
  C        17.8636776742       17.8217634677        7.3800577045
  C        46.8022010122       17.2164174548        2.1623689417
  C        45.5090337344       17.1467538066        2.9031617982
  C        45.3033647532       16.1624685011        3.8825633543
  C        44.1194483148       16.1349767749        4.6150383963
  C        43.1098300217       17.0915642332        4.3912710451
  C        43.3122363786       18.0547678324        3.3841568586
  C        44.4970458626       18.0861586281        2.6522921063
  C        41.8565454030       17.0956152158        5.1814188529
  C        41.8651560320       17.0978022444        6.6037242714
  C        43.0755828841       17.1958053346        7.3597445207
  C        20.3174943345       17.9341751113        7.3284398607
  C        20.2976439946       17.8952758165        4.5153253825
  C        46.7848544026       17.2320587622       13.8815218574
  C        45.4834551363       17.1269147162       13.1620398528
  C        45.2667324148       16.1277218262       12.2008000771
  C        44.0794872654       16.0987749459       11.4731250372
  C        43.0785018785       17.0661492437       11.6885454988
  C        43.2864674164       18.0362535250       12.6870496696
  C        44.4746464106       18.0713614613       13.4102490546
  C        41.8308213297       17.0840963608       10.8929321272
  C        41.8522030683       17.0908432414        9.4715536749
  C        43.0694593711       17.1896392405        8.7265496912
  C        46.1533073952       26.6372564290        8.7210866123
  C        46.1619125820       26.6559013217       11.5307417170
  C        14.0449383582       17.8321526945       13.7039576936
  C        15.3656971411       17.9082570379       13.0133273224
  C        15.6375432142       18.9257828039       12.0866505640
  C        16.8661890564       18.9656195489       11.4314523861
  C        17.8502321071       17.9870735892       11.6773983924
  C        17.5851665364       16.9982807614       12.6422388359
  C        16.3585086609       16.9579775242       13.3009679464
  C        19.1175481976       17.9654540640       10.9087533876
  C        19.0944046217       17.9428994931        9.4872926856
  C        17.8750778374       17.8321272148        8.7460377739
  C        28.7939438981       14.1177713608        2.4032332757
  C        28.1902077856       12.9413575001        3.0944411247
  C        28.9205853206       12.1893696986        4.0261953997
  C        28.3265656698       11.1078217169        4.6727232324
  C        26.9874870407       10.7533467098        4.4107042236
  C        26.2783605104       11.4859706160        3.4421954728
  C        26.8703339681       12.5672775817        2.7946417106
  C        26.3220233868        9.6675885755        5.1679074233
  C        26.3076725942        9.6926677861        6.5887107766
  C        26.8088650059       10.8060020911        7.3350819761
  C        32.1812682747       21.2399261219        2.1492624279
  C        32.7773084977       22.4059594236        2.8668866683
  C        32.0291764073       23.0875087845        3.8391260611
  C        32.6011941981       24.1255869250        4.5679457640
  C        33.9370993968       24.5111213635        4.3440810629
  C        34.6674183808       23.8493944877        3.3393499673
  C        34.0978034000       22.8050518760        2.6131875115
  C        34.5658781380       25.5864405139        5.1444331738
  C        34.5593452961       25.5561298271        6.5658628038
  C        34.0597066619       24.4359885439        7.3024449376
  C        25.6971318205        8.6143808441        7.3061720345
  C        25.6875161788        8.6166923884        4.4925995889
  C        32.1201821386       21.1939262073       13.8409360680
  C        32.7055663761       22.3522265801       13.1047795918
  C        31.9752926078       23.0018171104       12.0979005664
  C        32.5502574435       24.0429748656       11.3735029111
  C        33.8703950390       24.4604076476       11.6339646787
  C        34.5823762772       23.8236422559       12.6683631095
  C        34.0107603598       22.7802248814       13.3916158015
  C        34.5087037691       25.5451686463       10.8537524416
  C        34.5301049595       25.5348745926        9.4317746313
  C        34.0457662907       24.4255387542        8.6690487969
  C        40.6130195131       17.0874509096        8.7506690725
  C        40.6012652130       17.1127620658       11.5607269284
  C        28.7202110096       14.0965550755       13.7799755178
  C        28.1159960838       12.9434841092       13.0495897578
  C        28.8545044407       12.2425426385       12.0838792100
  C        28.2778845534       11.1773833636       11.3963072488
  C        26.9465990655       10.7884041862       11.6471048460
  C        26.2261200341       11.4759425465       12.6417714108
  C        26.8017258335       12.5398539825       13.3333229688
  C        26.3073543582        9.6951003849       10.8763551430
  C        26.3005888698        9.7076291112        9.4545104825
  C        26.8027817106       10.8147452517        8.7007186838
  C        18.1353868365        3.1809106964        2.3222286679
  C        17.4059570385        4.2781595316        3.0208123343
  C        16.3906348362        3.9997018289        3.9487299043
  C        15.7428391833        5.0396246093        4.6122624456
  C        16.0942916848        6.3834080018        4.3722476848
  C        17.0831901239        6.6530045689        3.4079995931
  C        17.7323455134        5.6157220573        2.7429122353
  C        15.4699970075        7.4911071948        5.1353105629
  C        15.4853888099        7.4905001187        6.5570288711
  C        16.1869205213        6.4968883359        7.3102314081
  C        42.9458686054       31.8594336916        2.0779615402
  C        43.6461799642       30.7717939252        2.8218982827
  C        44.5919128231       31.0930640122        3.8078035517
  C        45.1975888599       30.0874783574        4.5554197065
  C        44.8708891723       28.7344429586        4.3407443155
  C        43.9448428771       28.4201534041        3.3277231328
  C        43.3360525473       29.4253311958        2.5797103357
  C        45.4885030285       27.6551535597        5.1439211438
  C        45.4928248350       27.6809109076        6.5656072509
  C        44.8057747719       28.6889997057        7.3122088017
  C        14.8564383915        8.5630194816        7.2693777554
  C        14.8746952737        8.5628754545        4.4567240142
  C        42.9464156870       31.9615020268       13.8037919711
  C        43.6914791743       30.8854093255       13.0902272178
  C        44.6564888849       31.1912591552       12.1183069155
  C        45.2779531571       30.1716414057       11.4005942708
  C        44.9536929536       28.8213621714       11.6378385950
  C        44.0196663444       28.5237325432       12.6481158043
  C        43.3914593981       29.5405335968       13.3602824602
  C        45.5627977779       27.7239685937       10.8526438825
  C        45.5333214943       27.7174081943        9.4313529945
  C        44.8270396411       28.7076548039        8.6783905489
  C        35.1326248683       26.6304009044        8.7291680773
  C        35.1133080735       26.6061905514       11.5387164429
  C        18.1485520691        3.2468892704       13.7015461417
  C        17.4298707062        4.3437746038       12.9923067447
  C        16.4146254349        4.0524661022       12.0687955106
  C        15.7662290983        5.0830674622       11.3934245410
  C        16.1208638977        6.4283147331       11.6160993906
  C        17.1122480818        6.7117417307       12.5733395960
  C        17.7599978738        5.6828540229       13.2530807731
  C        15.4903560380        7.5240130049       10.8436532002
  C        15.4963268386        7.5074144304        9.4225180991
  C        16.1931080844        6.5057147157        8.6758369632
  H        10.6724412383       12.4662618424       11.8991177268
  H        11.6945632348       10.5513691462       10.6572367947
  H        15.3912288534       11.1679956151       12.7677041862
  H        14.3508058534       13.0708812605       14.0129220079
  H        13.3761735349       11.6311957586        9.1962533901
  H        50.3226786307       22.7490123667       11.9823700398
  H        49.3194038811       24.6233837180       10.6762827434
  H        45.6412857238       24.1601632328       12.8577896247
  H        46.6622724314       22.2894119096       14.1661146508
  H        47.6296655626       23.5758537489        9.2410943956
  H        14.8716572875        8.5880946434       12.6035293328
  H        50.2870785013       22.7029065183        4.0652320304
  H        49.2689381773       24.5757117709        5.3652674709
  H        45.6100388858       24.1084606310        3.1515557883
  H        46.6522492288       22.2532940234        1.8373104235
  H        47.6076683093       23.5517773933        6.8019766349
  H        40.6336535362       17.0708976257        3.4181122356
  H        48.6870069062       14.0950186818       15.7948612438
  H        10.6813763902       12.4669924931        4.0987280284
  H        11.6895715042       10.5250581876        5.3024957123
  H        15.3931449620       11.1583309223        3.2101540402
  H        14.3646299066       13.0867720684        1.9947983965
  H        13.3758703496       11.6221663000        6.7582507915
  H        47.9299689531       14.2189060282        1.7157024290
  H        47.7799735190       14.3739083566       14.4901295334
  H        49.0824516352       18.5518501228        2.8721068750
  H        10.4157336624       14.1344127283        0.0038705269
  H        24.4828643950        3.0309879531       11.9094793140
  H        25.6207544979        4.8905182757       10.6818112862
  H        23.2417784127        7.7556968010       12.8337363266
  H        22.1226314950        5.8863608127       14.0632317250
  H        23.8136339993        5.7923188385        9.2509804498
  H        36.3739394891       32.1875863641       11.9634117431
  H        35.2470830701       30.3640468778       10.6848868972
  H        37.5078605474       27.4386975807       12.8831290848
  H        38.6148704625       29.2748578972       14.1707696208
  H        37.0164037351       29.4544508367        9.2687251098
  H        25.7275278554        8.6156067987       12.6408672243
  H        36.4571469924       32.2437708082        4.1161329626
  H        35.3437546787       30.4262799191        5.4112117571
  H        37.5237741850       27.4888724133        3.1468170795
  H        38.6116120831       29.3179359407        1.8388847814
  H        37.0379570597       29.4746082631        6.8311613351
  H        46.1087060036       26.5871575734        3.3906206768
  H        44.6680911554       35.1160677386       15.8088286746
  H        24.4443514436        3.0409926353        4.0846320897
  H        25.5799828269        4.8804458170        5.3313814617
  H        23.1706712554        7.7688130041        3.2459115685
  H        22.0472723832        5.9173536887        1.9986174029
  H        23.7988817281        5.7923651281        6.8125775043
  H        44.9531136046       34.3897445103        1.6998881702
  H        44.9009973702       34.2065082976       14.4855279008
  H        40.6655828997       33.2086904803        2.8579720185
  H        23.1505823769        1.9576213719        0.0098897179
  H        25.8082401233       19.6711848767       11.9229213661
  H        23.6409625969       19.7193260555       10.6903623173
  H        22.3485322872       16.2242047747       12.8382171470
  H        24.5231309776       16.1880400628       14.0676789783
  H        23.7241584435       17.6982789694        9.2434544713
  H        35.1491562105       15.4399167323       11.9955857321
  H        37.2719762081       15.3917404419       10.6805272643
  H        38.6914218395       18.8090731177       12.8730200562
  H        36.5660688631       18.8356924200       14.1917553286
  H        37.2210920624       17.3715204742        9.2390812078
  H        20.3549533288       17.9865813803       12.6646448521
  H        35.1607599491       15.4286463932        4.0824461522
  H        37.3006408141       15.3563481717        5.3716131747
  H        38.7213826656       18.7747234659        3.1828670529
  H        36.5805410063       18.8263709963        1.8917585316
  H        37.2316707009       17.3569692096        6.7991976365
  H        35.1492684300       26.6846897126        3.3976365178
  H        28.5112930745       21.0862621847       15.8854440208
  H        25.7440158076       19.6501629460        4.1419201558
  H        23.5595497721       19.7063924783        5.3589266238
  H        22.3129163742       16.1641233829        3.2638239227
  H        24.4981775833       16.1292412180        2.0446691972
  H        23.7032578144       17.6800829377        6.8036837393
  H        29.0140182482       21.7223866037        1.7429067534
  H        29.1599383850       21.7464030818       14.5478808363
  H        32.0720340323       18.5641802914        3.0042029225
  H        27.4093900379       19.0832059966        0.0884621521
  H        14.8518091842       19.6530759135        4.1392439370
  H        17.0144938927       19.7009316534        5.3819605754
  H        18.3006398319       16.1844580919        3.2656704703
  H        16.1340620314       16.1526879689        2.0221974413
  H        16.9215251297       17.7051176930        6.8523906903
  H        46.0887897413       15.4324843135        4.0636717705
  H        43.9623702769       15.3643380923        5.3665606432
  H        42.5414447478       18.8017434752        3.2058902938
  H        44.6682264231       18.8448046573        1.8920913501
  H        44.0161607915       17.3082645850        6.8281655716
  H        20.2923025062       17.9196099882        3.4270496939
  H        46.0441288960       15.3874389105       12.0259524736
  H        43.9146459797       15.3223887568       10.7291861723
  H        42.5193466010       18.7881298529       12.8602366385
  H        44.6550134589       18.8390740017       14.1587114227
  H        44.0055442745       17.2963093294        9.2670667962
  H        46.1984089448       26.6822763926       12.6182026680
  H        52.7410270084       21.0625770724        0.1997439968
  H        14.8760595800       19.6789884764       11.8967076051
  H        17.0764533594       19.7576069205       10.7158693034
  H        18.3365737419       16.2364412411       12.8394335654
  H        16.1381522390       16.1819464810       14.0299600223
  H        16.9414648523       17.7233042251        9.2897355572
  H        52.3219043236       21.6731739434       14.2894735775
  H        52.0129531991       21.7018583331        1.5007428880
  H        49.0669679641       18.6077927100       13.1991844401
  H        13.2472463354       19.0165515521       15.9722835781
  H        29.9540740855       12.4635446261        4.2256198248
  H        28.8946908725       10.5233136558        5.3932509520
  H        25.2436533009       11.2226816662        3.2324412286
  H        26.3207865029       13.1527610948        2.0616349549
  H        27.1719233345       11.6750257424        6.7947912372
  H        31.0023237719       22.7769811282        4.0160015073
  H        32.0173237770       24.6539306775        5.3184982180
  H        35.7012020112       24.1382611989        3.1610010028
  H        34.6673369936       22.2680416716        1.8581322323
  H        33.7152495477       23.5631885383        6.7549889020
  H        25.7174407905        8.5989492911        3.4045444342
  H        30.9609619657       22.6687195905       11.8904527859
  H        31.9774802513       24.5499126852       10.6000877359
  H        35.6044830689       24.1343522226       12.8746916589
  H        34.5654641308       22.2666535901       14.1733951803
  H        33.6912489247       23.5438691776        9.1956051294
  H        40.5965961585       17.0812360630       12.6486103354
  H        32.5055980416       14.1542195640        0.2595732561
  H        29.8825104340       12.5416991496       11.8918562404
  H        28.8584070284       10.6289959303       10.6576164642
  H        25.1962269874       11.1879610935       12.8426041963
  H        26.2428255174       13.0858368850       14.0897138676
  H        27.1598594347       11.6909128311        9.2339499142
  H        33.2898626966       14.1931893363       14.4303441250
  H        33.4035680270       14.4189582901        1.6028660420
  H        32.1143420483       18.5123796141       13.1486624836
  H        30.2113841302       14.1898805503        0.0827795739
  H        16.1189273847        2.9631507248        4.1354042292
  H        14.9536689265        4.8201233490        5.3281956385
  H        17.3651614175        7.6859345725        3.2145091764
  H        18.5139592366        5.8184221065        2.0146224425
  H        16.7534488747        5.7395108591        6.7767580230
  H        44.8283634130       32.1401211415        3.9818844236
  H        45.9375584048       30.3411446427        5.3112880589
  H        43.6818099017       27.3781337866        3.1578209461
  H        42.5992171761       29.1899826724        1.8152597103
  H        44.2303126663       29.4366783474        6.7738981877
  H        14.8507850300        8.5460105174        3.3685075290
  H        44.9003998632       32.2339080931       11.9271684632
  H        46.0251503125       30.4127643248       10.6476150970
  H        43.7621636992       27.4840540719       12.8392394337
  H        42.6445286583       29.3177276323       14.1182981389
  H        44.2684327177       29.4704728235        9.2129700402
  H        35.0679398069       26.6185848406       12.6260754964
  H        36.6050201663       35.1340073629        0.1857850271
  H        16.1435668324        3.0128698665       11.8991290500
  H        14.9738633169        4.8561717728       10.6833976473
  H        17.3956641612        7.7472349876       12.7502262810
  H        18.5428534594        5.8933102255       13.9778652415
  H        16.7644398347        5.7554177118        9.2143067637
  H        36.2786558160       34.4821717257       14.2682618142
  H        36.3808735756       34.2091907855        1.5048799985
  H        40.5796894829       33.2020349912       13.1485707555
  H        17.4708047280        1.9470966278       15.9689921723
  H        29.0204513029       19.3669388179        4.4753749024
  H        28.8230011479       18.5594322157       11.8499812539
  H        30.4824892713       15.6831181113       11.8635194555
  H        31.0214798684       15.6011406588        4.4701058691
  H        28.0166360914       17.7137752001        6.5698251520
  H        29.1146721933       15.7074129801        6.6131127997
  H        29.9866843439       19.7505131463       10.0142783635
  H        32.0855222523       16.0942550370        9.9615031402
  H        18.8535537190        0.8691330681        4.3403956305
  H        40.5277786603       35.2292376796       11.9470490373
  H        42.3237442914       34.4187416499       11.5858035539
  H        22.0879778909        0.6921665814        4.3565613999
  H        11.5970593568       18.7128000535        4.3873991343
  H        52.2647402263       18.4308751987       11.6724574502
  H        49.2545153106       16.4773963838       11.5798613478
  H        10.1501613868       15.7982610098        4.2978662981
  H        50.8497295616       17.6924893976       11.9491682704
  H        10.0459372952       17.3945745515        4.0570783560
  H        20.2147149390        0.0022933141        4.0471552633
  H        39.1834226912       36.1243439483       11.6813547452
 Ni        30.8215789745       17.7907540145       10.8281742750
 Ni        30.8556062620       16.5052194407        7.9968594667
 Ni        29.7211750715       18.5734321603        7.9995376584
 Ni        29.9717606409       17.4498586243        5.2423799113
  O        10.6498958687       14.3651780092       13.4806988990
  O        12.6131415179       14.6575541136       14.5788068082
  O        49.1477364797       16.8459965964       15.9846873107
  O        50.3500740075       20.9361246673       13.6431433065
  O        48.3484722178       20.5932613799       14.6609079509
  O        11.0514019045       17.0539777959       14.4955657358
  O        50.3209950871       20.8816664097        2.4119147467
  O        48.3467325379       20.5867068309        1.3322165361
  O        49.5435271256       18.2484331277        2.0733794638
  O        12.3589006138       18.6245583955        0.0048590974