     571
 i =      266, E =     -4761.6736719443
  C        11.8585017529       14.0536290075       13.7363415327
  C        12.4561315654       12.8907898589       13.0178366394
  C        11.7048485191       12.1726612629       12.0752520105
  C        12.2812565072       11.1105286832       11.3827913317
  C        13.6214854020       10.7399295126       11.6113147286
  C        14.3541800228       11.4426672877       12.5857689737
  C        13.7812492918       12.5075443930       13.2773962758
  C        14.2610513647        9.6492223601       10.8380088818
  C        14.2563722001        9.6569461484        9.4162889773
  C        13.7432363630       10.7589338224        8.6621583452
  C        49.1262947933       21.2333986681       13.8746664798
  C        48.5494580216       22.4010688675       13.1474522495
  C        49.2996628251       23.0686652496       12.1667431919
  C        48.7327146059       24.1077145403       11.4334793075
  C        47.4020067504       24.5090483168       11.6617541878
  C        46.6707797603       23.8597394365       12.6747846476
  C        47.2332363946       22.8148843126       13.4042167630
  C        46.7719565573       25.5868510660       10.8644757394
  C        46.7613087922       25.5574174442        9.4427101656
  C        47.2612416813       24.4423218714        8.6992112684
  C        14.8600366868        8.5703537988        8.7031568597
  C        14.8917002396        8.5972432493       11.5147833040
  C        49.1129537599       21.2035481719        2.1503558985
  C        48.5276279735       22.3648845421        2.8773688000
  C        49.2670156952       23.0259890775        3.8699313221
  C        48.6906409688       24.0604934252        4.6013943637
  C        47.3600281730       24.4568805614        4.3635188802
  C        46.6394100230       23.8115291101        3.3404231276
  C        47.2129937187       22.7756395438        2.6086300571
  C        46.7216169924       25.5318504837        5.1545928065
  C        46.7336357142       25.5283167297        6.5762955660
  C        47.2490459450       24.4290700163        7.3326556553
  C        40.6202142255       17.0903804223        7.3154905252
  C        40.6303057238       17.1028668028        4.5057435559
  C        11.8825479149       14.0862524659        2.2903988240
  C        12.4713825246       12.9098069140        2.9941797120
  C        11.7139049548       12.1773848756        3.9209437064
  C        12.2800301419       11.0945802402        4.5892400799
  C        13.6184205235       10.7196961521        4.3567528894
  C        14.3561653035       11.4342512544        3.3949862047
  C        13.7912105276       12.5157753101        2.7224466326
  C        14.2519257449        9.6229464625        5.1273266987
  C        14.2514995959        9.6436088315        6.5491827400
  C        13.7422299986       10.7529464183        7.2960988215
  C        22.5095448136        3.2446566012       13.7461903533
  C        23.2191172970        4.3507397601       13.0423577693
  C        24.2169816353        4.0720470089       12.0968291022
  C        24.8403038696        5.1122873303       11.4124018975
  C        24.4810634938        6.4532629844       11.6532813534
  C        23.5102282537        6.7236138456       12.6348430143
  C        22.8826054809        5.6852129466       13.3178918937
  C        25.0862653907        7.5604833946       10.8782674944
  C        25.0658820396        7.5521918083        9.4565409720
  C        24.3696007101        6.5508884700        8.7075922866
  C        38.3018652489       31.9286552727       13.8441878263
  C        37.5718388051       30.8393094874       13.1357475545
  C        36.6100067753       31.1431455053       12.1600688885
  C        35.9921330095       30.1229507973       11.4423327582
  C        36.3214319098       28.7737649910       11.6782207171
  C        37.2532892841       28.4773857596       12.6907932322
  C        37.8751097553       29.4962129566       13.4076942668
  C        35.7206038638       27.6820499500       10.8798568508
  C        35.7516503405       27.6989559883        9.4584860384
  C        36.4530901422       28.7050603330        8.7221059420
  C        25.6912017783        8.6222823140        8.7388307988
  C        25.6783407590        8.6369508913       11.5510701361
  C        38.3288492084       31.9627409471        2.1617705527
  C        37.6062875863       30.8907438751        2.9026354525
  C        36.6774496696       31.2005205752        3.9078990676
  C        36.0667838096       30.1826531388        4.6375128674
  C        36.3710284792       28.8299177990        4.3854742025
  C        37.2771833793       28.5302526592        3.3497825229
  C        37.8898151687       29.5444651075        2.6212142838
  C        35.7640495200       27.7308348696        5.1695880305
  C        35.7737396189       27.7241849667        6.5915283193
  C        36.4633474989       28.7173991619        7.3555299038
  C        46.1356566985       26.6209602137        7.2864409233
  C        46.0873768546       26.5800547634        4.4785490644
  C        22.4625796839        3.2556103162        2.2614830987
  C        23.1609956267        4.3645711187        2.9812311253
  C        24.1699221249        4.0788866817        3.9148623372
  C        24.8016858509        5.1091412676        4.6075986506
  C        24.4447187549        6.4548551541        4.3895219253
  C        23.4591909570        6.7340271127        3.4238503069
  C        22.8230054921        5.7040267960        2.7314455172
  C        25.0756896038        7.5527975940        5.1647780628
  C        25.0615299752        7.5473866077        6.5875069874
  C        24.3654844537        6.5498640065        7.3409104881
  C        26.6008475171       17.8906297999       13.7803420853
  C        25.2955006850       17.9464239148       13.0546416921
  C        25.0310947001       18.9574617012       12.1176931929
  C        23.8196189292       18.9797968818       11.4289177857
  C        22.8377213295       17.9943676783       11.6567103930
  C        23.0975509156       17.0068624461       12.6252538803
  C        24.3101963527       16.9796262705       13.3114546136
  C        21.5670507611       17.9785396166       10.8898205362
  C        21.5705441677       17.9604449839        9.4678222266
  C        22.7791051470       17.8494098761        8.7098034103
  C        34.4380385860       17.1953091278       13.9121544388
  C        35.7300162941       17.1437116709       13.1683209952
  C        35.9289109762       16.1801415127       12.1673702671
  C        37.1093337875       16.1648724278       11.4301103970
  C        38.1232219077       17.1118506865       11.6732870817
  C        37.9269634294       18.0557153299       12.6995771073
  C        36.7436343664       18.0766963565       13.4342019429
  C        39.3760933146       17.1180985631       10.8841073270
  C        39.3684442527       17.1260271481        9.4619023832
  C        38.1600634299       17.2513636341        8.7066820847
  C        20.3248524476       17.9666228330        8.7578247272
  C        20.3421335533       17.9692375414       11.5710939254
  C        34.4392069608       17.2369260020        2.1962189440
  C        35.7398828939       17.1356442394        2.9177769311
  C        35.9409168518       16.1637292834        3.9091868397
  C        37.1316367003       16.1338669403        4.6310244344
  C        38.1503524852       17.0744276290        4.3814899919
  C        37.9554564750       18.0182734897        3.3555193161
  C        36.7642188590       18.0536519060        2.6372399470
  C        39.4001746065       17.0916322147        5.1738005559
  C        39.3807701504       17.1125443370        6.5953916499
  C        38.1660403536       17.2429492102        7.3399788710
  C        35.1482109975       26.6416974474        7.2946831967
  C        35.1765798000       26.6592820067        4.4856744311
  C        26.5730865635       17.8281022596        2.3316799316
  C        25.2581952198       17.8717808364        3.0402300744
  C        24.9756506051       18.9051972478        3.9460579209
  C        23.7571586845       18.9345498967        4.6187326147
  C        22.7916796212       17.9301950968        4.4080957607
  C        23.0685494159       16.9188375189        3.4711424310
  C        24.2878338313       16.8882816435        2.7963172722
  C        21.5263322739       17.9199166857        5.1789560947
  C        21.5491049268       17.9290526973        6.5999682048
  C        22.7684053149       17.8342055557        7.3435873618
  C        14.0455711966       17.8290779290        2.2926964765
  C        15.3505843728       17.8872811576        3.0169085688
  C        15.6076460689       18.8934482023        3.9609524667
  C        16.8169643559       18.9159683251        4.6527975713
  C        17.8025820362       17.9351066741        4.4222287946
  C        17.5503384282       16.9529063167        3.4460758899
  C        16.3403580175       16.9260206991        2.7557199570
  C        19.0709559726       17.9217917529        5.1914380776
  C        19.0678602963       17.9281522630        6.6137396052
  C        17.8601050632       17.8272666574        7.3737943496
  C        46.8017977762       17.2160189480        2.1622678245
  C        45.5087034229       17.1455930970        2.9023386846
  C        45.3039136921       16.1622038875        3.8829152404
  C        44.1200510794       16.1344389725        4.6153827600
  C        43.1094209745       17.0897419712        4.3905139231
  C        43.3107661276       18.0515606698        3.3817598712
  C        44.4954991822       18.0833313491        2.6498856044
  C        41.8564506610       17.0947444161        5.1810489593
  C        41.8653883292       17.0988432959        6.6033819789
  C        43.0759306912       17.1952099825        7.3593483582
  C        20.3135554864       17.9510486306        7.3233372776
  C        20.2958523028       17.8977842669        4.5105915583
  C        46.7845332042       17.2317836356       13.8814641159
  C        45.4833286493       17.1263209908       13.1624120713
  C        45.2667656243       16.1275505481       12.2005809164
  C        44.0795690156       16.0987551124       11.4728754454
  C        43.0784023547       17.0659541178       11.6885453877
  C        43.2860341164       18.0351982477       12.6880381505
  C        44.4740966306       18.0702149841       13.4113154583
  C        41.8309939891       17.0851416036       10.8926780742
  C        41.8525445054       17.0927132933        9.4712662084
  C        43.0698932893       17.1892629867        8.7262053639
  C        46.1534292498       26.6373778714        8.7209834403
  C        46.1618558262       26.6558657026       11.5306385106
  C        14.0431310666       17.8316622962       13.7034189732
  C        15.3624193476       17.9083865355       13.0099426730
  C        15.6324042306       18.9307537160       12.0881669275
  C        16.8596406142       18.9737544739       11.4307635677
  C        17.8435100758       17.9938971806       11.6706516514
  C        17.5797957825       16.9986965326       12.6290408473
  C        16.3542790702       16.9551305939       13.2897550809
  C        19.1109863554       17.9793185227       10.9024991201
  C        19.0889192507       17.9573223134        9.4812536689
  C        17.8703762851       17.8402315361        8.7397548243
  C        28.7947518717       14.1170207932        2.4008618199
  C        28.1927021749       12.9390381485        3.0904771830
  C        28.9180477668       12.2023762357        4.0383123510
  C        28.3252847829       11.1202326485        4.6849945434
  C        26.9928533839       10.7514802787        4.4091538421
  C        26.2899052175       11.4690620672        3.4246978970
  C        26.8806190321       12.5499713279        2.7755991214
  C        26.3262362794        9.6671353533        5.1669001666
  C        26.3062880606        9.6941015167        6.5878097539
  C        26.8040848804       10.8082878130        7.3352549253
  C        32.1813319713       21.2419475488        2.1499017389
  C        32.7774170315       22.4071756092        2.8673002834
  C        32.0333538130       23.0800894714        3.8484920712
  C        32.6052932818       24.1183354336        4.5767963850
  C        33.9371349661       24.5121221896        4.3440984650
  C        34.6634964048       23.8584058004        3.3310432660
  C        34.0940535929       22.8140071931        2.6050861419
  C        34.5663594416       25.5867923047        5.1446172765
  C        34.5617024802       25.5554494092        6.5662247802
  C        34.0638351771       24.4345700480        7.3026964702
  C        25.6938467138        8.6161526476        7.3042669771
  C        25.6939376841        8.6149642015        4.4910613959
  C        32.1216039534       21.1957852675       13.8424076237
  C        32.7089081921       22.3526167376       13.1061154417
  C        31.9815487699       22.9999915328       12.0958165016
  C        32.5575500857       24.0395685324       11.3704186052
  C        33.8763959008       24.4587411250       11.6342490507
  C        34.5857610093       23.8246461525       12.6721982966
  C        34.0131405233       22.7819793698       13.3956830913
  C        34.5149766912       25.5429562209       10.8539611095
  C        34.5354003150       25.5328462430        9.4319112574
  C        34.0512894514       24.4235645429        8.6692693421
  C        40.6133749918       17.0923985309        8.7503642937
  C        40.6014651924       17.1144000967       11.5604337810
  C        28.7114127721       14.0936831567       13.7837269220
  C        28.1029279475       12.9430020941       13.0538560928
  C        28.8431012417       12.2364977172       12.0932775054
  C        28.2649992657       11.1740614821       11.4031709768
  C        26.9305830403       10.7920702776       11.6475771812
  C        26.2085118875       11.4837728062       12.6382377807
  C        26.7853928230       12.5460172525       13.3315225740
  C        26.2920238004        9.6994721154       10.8754817521
  C        26.2899082348        9.7110879031        9.4537204837
  C        26.7941457688       10.8177459081        8.7008501797
  C        18.1353235937        3.1793451558        2.3227797279
  C        17.4049245354        4.2764475380        3.0209118029
  C        16.3909041957        3.9976994123        3.9501370380
  C        15.7425761984        5.0375187543        4.6133904546
  C        16.0923729973        6.3814938455        4.3719967850
  C        17.0799575066        6.6513045839        3.4064702559
  C        17.7294906813        5.6141444187        2.7415448618
  C        15.4681400599        7.4893431706        5.1349449633
  C        15.4843628289        7.4894968358        6.5566879524
  C        16.1864987023        6.4963934134        7.3100119266
  C        42.9456690846       31.8595370328        2.0778082428
  C        43.6457681047       30.7721004722        2.8222533803
  C        44.5917716555       31.0932557686        3.8079296553
  C        45.1974794821       30.0875839959        4.5554206335
  C        44.8705964081       28.7345805665        4.3408062887
  C        43.9441938826       28.4203964759        3.3280766158
  C        43.3353441960       29.4256634116        2.5802353374
  C        45.4883625456       27.6552616332        5.1438631552
  C        45.4928255816       27.6810249973        6.5655501986
  C        44.8057532952       28.6890681632        7.3121881967
  C        14.8557780564        8.5623354410        7.2689029540
  C        14.8724049788        8.5608335324        4.4562448450
  C        42.9462940451       31.9614188473       13.8039681568
  C        43.6915801313       30.8853477171       13.0904834185
  C        44.6564440200       31.1912581584       12.1184467984
  C        45.2778854120       30.1717024260       11.4006202961
  C        44.9537425957       28.8213926295       11.6378678757
  C        44.0198758914       28.5236971518       12.6482802884
  C        43.3917080213       29.5404520454       13.3605712958
  C        45.5628446985       27.7240263241       10.8525922633
  C        45.5334115801       27.7174919137        9.4312937737
  C        44.8270974101       28.7077321681        8.6783652333
  C        35.1359204430       26.6294954792        8.7293389654
  C        35.1191918988       26.6040846291       11.5389521162
  C        18.1482612119        3.2467008096       13.7016878989
  C        17.4296151021        4.3437762376       12.9924434625
  C        16.4147068412        4.0525532469       12.0685524645
  C        15.7665112879        5.0832019044       11.3930195656
  C        16.1209225571        6.4284692175       11.6159638575
  C        17.1119005275        6.7117977385       12.5736573992
  C        17.7594597646        5.6828520037       13.2535267863
  C        15.4905518113        7.5241932886       10.8433797025
  C        15.4964556235        7.5074668247        9.4222222137
  C        16.1931777633        6.5056756535        8.6756134692
  H        10.6729614083       12.4673075192       11.8976296436
  H        11.6951582177       10.5526199162       10.6556584124
  H        15.3908650833       11.1673106849       12.7683180639
  H        14.3502646042       13.0699879062       14.0137711819
  H        13.3764337312       11.6312578043        9.1952825019
  H        50.3224678949       22.7488147507       11.9822508206
  H        49.3192151745       24.6231443936       10.6760318311
  H        45.6410307406       24.1599615966       12.8574311812
  H        46.6618822764       22.2892536605       14.1657954164
  H        47.6294139716       23.5757697751        9.2408727381
  H        14.8717897207        8.5884926438       12.6030875093
  H        50.2871708266       22.7033694329        4.0646078440
  H        49.2690527917       24.5761630310        5.3647325815
  H        45.6097541179       24.1082010346        3.1518177485
  H        46.6518349225       22.2530775962        1.8375745845
  H        47.6075441241       23.5518275604        6.8017673802
  H        40.6335977512       17.0655321188        3.4180192094
  H        48.6868411885       14.0948358300       15.7948336988
  H        10.6807656676       12.4672981078        4.0989377778
  H        11.6881609885       10.5248561454        5.3024174985
  H        15.3911612623       11.1552800540        3.2082567445
  H        14.3634113914       13.0843355940        1.9931818312
  H        13.3752306561       11.6213998755        6.7573184180
  H        47.9299446134       14.2182259085        1.7157665760
  H        47.7797876276       14.3728835305       14.4898670320
  H        49.0815624270       18.5516078158        2.8718646019
  H        10.4153028317       14.1343702689        0.0035089000
  H        24.4821272863        3.0339600718       11.9090454646
  H        25.6150346729        4.8960319951       10.6799824916
  H        23.2250332751        7.7559320651       12.8266630408
  H        22.1112619656        5.8841988621       14.0578713349
  H        23.8071857005        5.7934137016        9.2457394341
  H        36.3717721493       32.1863186670       11.9663249631
  H        35.2461210037       30.3618397460       10.6875738072
  H        37.5148874877       27.4383080002       12.8798451781
  H        38.6202532170       29.2751149454       14.1681835687
  H        37.0152267897       29.4566816713        9.2686233639
  H        25.7082412613        8.6205220485       12.6390598641
  H        36.4551739114       32.2449260556        4.1147280610
  H        35.3410016722       30.4278519237        5.4097195629
  H        37.5234887760       27.4897486036        3.1488004042
  H        38.6119969686       29.3182279965        1.8405940186
  H        37.0345470436       29.4779870731        6.8310961163
  H        46.1083063161       26.5872002109        3.3905018477
  H        44.6703030378       35.1163028126       15.8051530115
  H        24.4497120452        3.0407873487        4.0795262319
  H        25.5869216292        4.8802068313        5.3249823847
  H        23.1717169170        7.7683712224        3.2463461169
  H        22.0462287097        5.9169986703        2.0006232838
  H        23.7994651752        5.7920359215        6.8070059693
  H        44.9531228180       34.3883491876        1.6987980920
  H        44.8990597937       34.2054061492       14.4836010845
  H        40.6648655913       33.2092158276        2.8572265454
  H        23.1517232970        1.9577813828        0.0085221443
  H        25.7853667894       19.7229533915       11.9493535828
  H        23.6158989153       19.7699278651       10.7093168674
  H        22.3499313779       16.2379622097       12.8092518955
  H        24.5229930308       16.2045462927       14.0440253783
  H        23.7200679272       17.7423729923        9.2417624865
  H        35.1398623175       15.4572206380       11.9749449065
  H        37.2613059141       15.4110507572       10.6608202438
  H        38.7009491486       18.7959953540       12.8913331790
  H        36.5758031346       18.8209063725       14.2092789584
  H        37.2220690925       17.3877014490        9.2375741331
  H        20.3472336700       18.0049399058       12.6590884628
  H        35.1460258461       15.4503314102        4.1138887217
  H        37.2845200530       15.3781863785        5.3983408564
  H        38.7345948853       18.7512113452        3.1567260519
  H        36.5938798079       18.8019964391        1.8671198989
  H        37.2323490362       17.3720941154        6.8000841597
  H        35.1475266733       26.6865644799        3.3980571449
  H        28.5074081305       21.0953020290       15.8907724625
  H        25.7232414385       19.6801805643        4.0991537910
  H        23.5353658964       19.7404542090        5.3151266248
  H        22.3310458741       16.1364095542        3.3040773299
  H        24.5173683422       16.0981402107        2.0852609954
  H        23.7010480962       17.7161815915        6.7999130804
  H        29.0137553777       21.7234099017        1.7451006376
  H        29.1670665783       21.7449498510       14.5515477533
  H        32.0674294778       18.5624324896        3.0053956061
  H        27.4054710357       19.0846297453        0.0929777425
  H        14.8490981695       19.6528324736        4.1372064801
  H        17.0132557234       19.7021410811        5.3786798658
  H        18.3010920684       16.1876746820        3.2596484334
  H        16.1329839077       16.1548951760        2.0175860123
  H        16.9189363743       17.7052295970        6.8456041677
  H        46.0900069043       15.4332081676        4.0650303441
  H        43.9636804681       15.3645628496        5.3678188036
  H        42.5390029845       18.7972584467        3.2023505338
  H        44.6656661625       18.8410628779        1.8885485858
  H        44.0167768213       17.3057464835        6.8278618230
  H        20.2911743181       17.9152619092        3.4221969736
  H        46.0441895207       15.3874004618       12.0253371524
  H        43.9148419710       15.3227081551       10.7285622841
  H        42.5186286727       18.7866863995       12.8616542143
  H        44.6540022679       18.8374649401       14.1603543303
  H        44.0062727010       17.2941160732        9.2665392467
  H        46.1982019109       26.6821450142       12.6181079737
  H        52.7407149556       21.0624343647        0.1996103355
  H        14.8706224463       19.6851317895       11.9042559838
  H        17.0691080630       19.7692396406       10.7188241652
  H        18.3312464094       16.2353179118       12.8200314389
  H        16.1342989413       16.1749142983       14.0144244991
  H        16.9370516106       17.7283841709        9.2834112237
  H        52.3207869603       21.6728280022       14.2898457814
  H        52.0122733745       21.7013655748        1.5006187869
  H        49.0661420774       18.6076870982       13.1994345341
  H        13.2467309832       19.0168816047       15.9719651064
  H        29.9445235033       12.4907882202        4.2536232838
  H        28.8900587136       10.5476563293        5.4175770249
  H        25.2605031004       11.1945164383        3.2036324200
  H        26.3356650389       13.1238509098        2.0301302638
  H        27.1691476712       11.6770660972        6.7960253916
  H        31.0109501321       22.7617423195        4.0361085626
  H        32.0243185252       24.6377631222        5.3356561437
  H        35.6945310662       24.1530103627        3.1463742543
  H        34.6610792340       22.2829295214        1.8440198724
  H        33.7175738723       23.5615836052        6.7567267834
  H        25.7278438431        8.5955876119        3.4031537495
  H        30.9680401354       22.6664506822       11.8860455633
  H        31.9871776971       24.5426183231       10.5927788730
  H        35.6069771509       24.1366226136       12.8810289032
  H        34.5663085659       22.2703402547       14.1798013197
  H        33.6964158021       23.5412009662        9.1943079276
  H        40.5968122502       17.0805727491       12.6482479606
  H        32.5125294224       14.1480321158        0.2654848566
  H        29.8744195216       12.5287952698       11.9089471474
  H        28.8463899487       10.6216251950       10.6681803336
  H        25.1765992541       11.2000191771       12.8346876640
  H        26.2252867029       13.0950080061       14.0848943853
  H        27.1500416106       11.6941762242        9.2344284053
  H        33.2889765899       14.1842928006       14.4247410220
  H        33.4030556175       14.4111323290        1.6131173073
  H        32.1232909216       18.5180297714       13.1633132852
  H        30.2140345030       14.1852812429        0.0899140454
  H        16.1209522317        2.9609402613        4.1382116187
  H        14.9543561247        4.8177245819        5.3302827014
  H        17.3606632778        7.6843607972        3.2118194205
  H        18.5100954688        5.8170830131        2.0122491475
  H        16.7529523761        5.7389246170        6.7765905988
  H        44.8285138385       32.1402495015        3.9819518300
  H        45.9376627894       30.3411532468        5.3111103572
  H        43.6809207500       27.3784219558        3.1582436183
  H        42.5982413450       29.1904081020        1.8160115604
  H        44.2301470127       29.4366607207        6.7739144784
  H        14.8478358513        8.5434278789        3.3680507175
  H        44.9001996258       32.2339324620       11.9272569177
  H        46.0249333063       30.4129234352       10.6475260975
  H        43.7623917098       27.4840084017       12.8393929398
  H        42.6448667947       29.3175756108       14.1186636061
  H        44.2684204390       29.4704725932        9.2129794351
  H        35.0746896300       26.6162224807       12.6263547272
  H        36.6075518431       35.1342876867        0.1898820831
  H        16.1437893262        3.0129434181       11.8986959321
  H        14.9744391335        4.8562851642       10.6826717426
  H        17.3951412064        7.7472800275       12.7508711088
  H        18.5419376347        5.8932542719       13.9787357365
  H        16.7648656664        5.7556796726        9.2141246322
  H        36.2782888843       34.4826220418       14.2687877092
  H        36.3854781959       34.2074509855        1.5053801188
  H        40.5781657390       33.2017472164       13.1486719658
  H        17.4745418919        1.9450763692       15.9716714699
  H        29.0469984223       19.3943402713        4.4368541946
  H        28.8262355071       18.5576593503       11.9192719916
  H        30.4148218606       15.6432511854       11.9816945191
  H        31.1735906596       15.6378529975        4.5523173883
  H        28.0234801739       17.8283042928        6.5167541060
  H        29.1705197455       15.6737452359        6.5054675798
  H        30.0808602103       19.7687513616       10.1295057757
  H        31.8653209365       15.9278009538       10.0087522017
  H        18.9040902452        0.8512633878        4.3684509538
  H        40.5243339310       35.2298192207       11.9463579694
  H        42.3232441666       34.4177559756       11.5852269880
  H        22.0978234025        0.6986089907        4.3485633863
  H        11.5970975178       18.7126920109        4.3872388041
  H        52.2644959926       18.4305979070       11.6725684296
  H        49.2548232998       16.4772139976       11.5796718449
  H        10.1499807626       15.7982215659        4.2979231628
  H        50.8492974142       17.6923785479       11.9492279643
  H        10.0456457605       17.3944616915        4.0571330277
  H        20.2918400694        0.0046928087        4.0393529452
  H        39.1813185062       36.1250381890       11.6837409093
 Ni        30.8129428653       17.7435036289       10.9884022074
 Ni        30.7323237487       16.5735685516        8.0000070233
 Ni        29.6396222842       18.6182951505        8.0808856404
 Ni        29.9678789467       17.4569576575        5.1637395375
  O        10.6498416163       14.3651718753       13.4806336193
  O        12.6130990367       14.6575511197       14.5787541304
  O        49.1477400153       16.8460434077       15.9846989224
  O        50.3500083776       20.9362796529       13.6432465212
  O        48.3484316938       20.5932816104       14.6609426316
  O        11.0510251071       17.0540917296       14.4954712800
  O        50.3209377954       20.8817073453        2.4118666747
  O        48.3467129506       20.5866981610        1.3321934528
  O        49.5433556607       18.2484706345        2.0734386370
  O        12.3586356460       18.6244499615        0.0048284836