     570
 i =      264, E =     -4745.6130498463
  C        11.8585439630       14.0535017829       13.7365541302
  C        12.4560541900       12.8905250384       13.0182382296
  C        11.7044672829       12.1718865473       12.0762936388
  C        12.2808327082       11.1096659509       11.3839389415
  C        13.6212597530       10.7395303487       11.6119885068
  C        14.3542446531       11.4427716803       12.5858361630
  C        13.7813937576       12.5077554678       13.2773550333
  C        14.2608905610        9.6489594019       10.8385516368
  C        14.2562858704        9.6569709990        9.4168453801
  C        13.7431256100       10.7590917023        8.6629224957
  C        49.1265624076       21.2333543409       13.8747242570
  C        48.5497322907       22.4011686762       13.1476226509
  C        49.2998127826       23.0685728068       12.1667054525
  C        48.7328544679       24.1076364744       11.4334530724
  C        47.4022280519       24.5091259451       11.6618789456
  C        46.6711958509       23.8601228187       12.6752639103
  C        47.2336746065       22.8152775426       13.4046916092
  C        46.7720445638       25.5868519188       10.8645914996
  C        46.7613510849       25.5573764420        9.4428232619
  C        47.2612799114       24.4423035598        8.6993060974
  C        14.8603095603        8.5706895876        8.7035549848
  C        14.8915767286        8.5969171758       11.5151459818
  C        49.1131257902       21.2035190103        2.1503698074
  C        48.5277296981       22.3647257669        2.8776329841
  C        49.2670489195       23.0256318970        3.8703767500
  C        48.6907089674       24.0602081476        4.6017784999
  C        47.3602185317       24.4568344730        4.3636830462
  C        46.6396811538       23.8116907327        3.3403955965
  C        47.2132303998       22.7757340586        2.6086692652
  C        46.7218518215       25.5318802690        5.1546694535
  C        46.7336884624       25.5282833606        6.5763751640
  C        47.2490904502       24.4290541009        7.3327523812
  C        40.6196820134       17.0897435871        7.3150247322
  C        40.6295554096       17.0968434947        4.5055015250
  C        11.8827763999       14.0864910370        2.2905417741
  C        12.4720531473       12.9105988138        2.9947201359
  C        11.7145809030       12.1775823236        3.9209908374
  C        12.2811902636       11.0951701806        4.5894705690
  C        13.6199314185       10.7212610542        4.3574785288
  C        14.3577410080       11.4365306011        3.3963174408
  C        13.7923240404       12.5176624410        2.7235677848
  C        14.2535696949        9.6245718642        5.1279391886
  C        14.2524596264        9.6446492111        6.5497859224
  C        13.7425480327       10.7535794128        7.2968713966
  C        22.5108058619        3.2449296783       13.7469659804
  C        23.2224471870        4.3510946884       13.0447938315
  C        24.2189436143        4.0722260295       12.0977792446
  C        24.8435078643        5.1123531121       11.4141396131
  C        24.4871662987        6.4538327586       11.6569982294
  C        23.5183438657        6.7242623763       12.6406339822
  C        22.8893635014        5.6859520018       13.3228077189
  C        25.0916018813        7.5611577042       10.8810084460
  C        25.0674565855        7.5532899036        9.4591875364
  C        24.3699686215        6.5518031055        8.7115483502
  C        38.3017034214       31.9290981884       13.8443753676
  C        37.5705508475       30.8400694130       13.1359178671
  C        36.6081632799       31.1445491113       12.1609876036
  C        35.9893725861       30.1248871890       11.4431923416
  C        36.3184454949       28.7754705896       11.6780987889
  C        37.2508765991       28.4784219653       12.6899400317
  C        37.8734676015       29.4967597224       13.4069988324
  C        35.7161590232       27.6843911041       10.8796884515
  C        35.7450644506       27.7021535955        9.4582080798
  C        36.4473685939       28.7075461025        8.7216657454
  C        25.6898136776        8.6241668926        8.7399241523
  C        25.6858315663        8.6375828696       11.5522840882
  C        38.3287267783       31.9626387795        2.1611705794
  C        37.6061290148       30.8908296925        2.9028939912
  C        36.6758137858       31.2015556273        3.9064692718
  C        36.0636498384       30.1844241667        4.6358858048
  C        36.3679475375       28.8314695553        4.3853137970
  C        37.2761314359       28.5307277008        3.3517449011
  C        37.8902235237       29.5443201767        2.6233635657
  C        35.7585367941       27.7334061577        5.1692044548
  C        35.7666640599       27.7273727004        6.5911611050
  C        36.4574354909       28.7197770626        7.3551197494
  C        46.1357453953       26.6209454971        7.2865241540
  C        46.0878221328       26.5801825310        4.4786114589
  C        22.4620859496        3.2556691619        2.2617024564
  C        23.1593239033        4.3645104693        2.9820117279
  C        24.1650441011        4.0785816833        3.9189788296
  C        24.7953971641        5.1088334939        4.6128415205
  C        24.4400674567        6.4546050463        4.3923597888
  C        23.4575234669        6.7338337707        3.4236658958
  C        22.8227518105        5.7038664383        2.7301565919
  C        25.0699383868        7.5532097871        5.1671117590
  C        25.0571923297        7.5484684368        6.5898745399
  C        24.3633005280        6.5506406011        7.3448261043
  C        26.6171571875       17.8590295283       13.7782905497
  C        25.3103381859       17.9068374293       13.0545234421
  C        25.0456092767       18.9102459909       12.1086800328
  C        23.8333325688       18.9290160753       11.4214108144
  C        22.8480242987       17.9491721759       11.6594761717
  C        23.1080708793       16.9693214120       12.6363967800
  C        24.3227075234       16.9440943210       13.3201391922
  C        21.5752037583       17.9352481486       10.8943709693
  C        21.5763998670       17.9175020626        9.4718552038
  C        22.7826647077       17.7973465882        8.7120963660
  C        34.4380410264       17.1961903523       13.9132915079
  C        35.7307780344       17.1441515297       13.1697379008
  C        35.9374069298       16.1711433649       12.1793098703
  C        37.1170526727       16.1577513496       11.4405271800
  C        38.1237584354       17.1150533635       11.6731470368
  C        37.9207039654       18.0678247305       12.6896537051
  C        36.7376069594       18.0874213177       13.4249186873
  C        39.3768524753       17.1213250708       10.8839340115
  C        39.3687200802       17.1265436550        9.4619336517
  C        38.1599316197       17.2493361601        8.7069981054
  C        20.3302564414       17.9353069858        8.7624418085
  C        20.3501798009       17.9355186090       11.5761284043
  C        34.4406240535       17.2366934590        2.1929588344
  C        35.7414042435       17.1341580878        2.9143983602
  C        35.9351741878       16.1686219677        3.9135156783
  C        37.1254627578       16.1368023665        4.6359974802
  C        38.1498289887       17.0698607312        4.3806369497
  C        37.9610084142       18.0076181770        3.3478616856
  C        36.7706994663       18.0444476479        2.6280584961
  C        39.3992066820       17.0868360003        5.1734962036
  C        39.3800449740       17.1102198122        6.5951195020
  C        38.1654851615       17.2406946442        7.3402836467
  C        35.1383211563       26.6464770787        7.2942654006
  C        35.1700813001       26.6625066126        4.4851758390
  C        26.5728812714       17.8284111919        2.3305776714
  C        25.2577019796       17.8749719836        3.0368431521
  C        24.9954691750       18.8790704386        3.9811900062
  C        23.7775561804       18.9056920696        4.6550253589
  C        22.7928043300       17.9281110578        4.4084584719
  C        23.0497218636       16.9488563971        3.4318350392
  C        24.2681166615       16.9203905259        2.7558803267
  C        21.5291178059       17.9104109628        5.1814466360
  C        21.5525330013       17.9026236841        6.6030528998
  C        22.7707365069       17.7894990128        7.3458279064
  C        14.0466196136       17.8292147996        2.2937030782
  C        15.3513885318       17.8871931010        3.0189584184
  C        15.6081160009       18.8917659836        3.9650985249
  C        16.8171477162       18.9136390770        4.6579850344
  C        17.8036370874       17.9336382341        4.4269603866
  C        17.5516531724       16.9531540986        3.4487831117
  C        16.3420484038       16.9267516380        2.7574963726
  C        19.0727152645       17.9174929171        5.1962850990
  C        19.0710446396       17.9152223562        6.6187981006
  C        17.8637165765       17.8166865847        7.3795690939
  C        46.8019977424       17.2159252267        2.1620826911
  C        45.5084317897       17.1447390922        2.9021540907
  C        45.3042651647       16.1613038180        3.8827674083
  C        44.1202071997       16.1324500554        4.6150100870
  C        43.1088991466       17.0868989239        4.3898686695
  C        43.3096356623       18.0488992607        3.3812110303
  C        44.4946559810       18.0817622743        2.6496998146
  C        41.8557813190       17.0913365750        5.1804691807
  C        41.8648043421       17.0980958044        6.6027866145
  C        43.0754105114       17.1966108098        7.3583598610
  C        20.3176115140       17.9268856589        7.3275422538
  C        20.2971667393       17.8980264846        4.5145624756
  C        46.7849597679       17.2322885985       13.8814455111
  C        45.4837130945       17.1282521196       13.1615934690
  C        45.2660674069       16.1294039672       12.2002301360
  C        44.0789234155       16.1019537072       11.4723129733
  C        43.0791662617       17.0706580276       11.6874663472
  C        43.2880067377       18.0403545399       12.6861642921
  C        44.4759773508       18.0738828694       13.4096871531
  C        41.8314818519       17.0899495144       10.8920046277
  C        41.8525908619       17.0960513502        9.4705838639
  C        43.0697838390       17.1925869850        8.7252146906
  C        46.1533942334       26.6372846940        8.7210720574
  C        46.1620565646       26.6559493293       11.5307195140
  C        14.0447883908       17.8312528471       13.7034786334
  C        15.3655087817       17.9048356031       13.0121261514
  C        15.6397498939       18.9218586641       12.0856560652
  C        16.8687796902       18.9592244891       11.4309012035
  C        17.8507250518       17.9785344377       11.6768396109
  C        17.5830956856       16.9898999476       12.6411061320
  C        16.3561411887       16.9521575303       13.2994644705
  C        19.1181907559       17.9545958622       10.9083490747
  C        19.0948453104       17.9331119207        9.4868021607
  C        17.8752704010       17.8245548981        8.7455866417
  C        28.7909760279       14.1144128561        2.4014727139
  C        28.1894638685       12.9362012513        3.0888663177
  C        28.9103003969       12.2058304184        4.0448962648
  C        28.3159648327       11.1244022001        4.6908050128
  C        26.9862765263       10.7512595570        4.4075803005
  C        26.2882476824       11.4624915155        3.4149253382
  C        26.8807554356       12.5421139782        2.7654844276
  C        26.3183161219        9.6688262425        5.1665163584
  C        26.2984963954        9.6972101675        6.5875466192
  C        26.7940334454       10.8132248026        7.3337839144
  C        32.1799824485       21.2426166933        2.1484377593
  C        32.7732483571       22.4110351083        2.8633259768
  C        32.0252803304       23.0858669659        3.8404211146
  C        32.5952234542       24.1248987653        4.5694345536
  C        33.9285739869       24.5168552777        4.3421762317
  C        34.6585732693       23.8612449497        3.3328642849
  C        34.0912020821       22.8164498603        2.6057610848
  C        34.5564789013       25.5916913774        5.1438377653
  C        34.5491921746       25.5617151761        6.5655570129
  C        34.0455367697       24.4435864569        7.3024164859
  C        25.6891864553        8.6182864510        7.3053055869
  C        25.6868100143        8.6153136435        4.4921091061
  C        32.1199431852       21.1954059625       13.8431829284
  C        32.7048102850       22.3546970320       13.1080366516
  C        31.9700632547       23.0145699372       12.1109701192
  C        32.5453585730       24.0540792683       11.3844963755
  C        33.8703758622       24.4619190737       11.6349142289
  C        34.5868834788       23.8166149900       12.6609255291
  C        34.0152730785       22.7735578753       13.3848444138
  C        34.5076663139       25.5469544544       10.8539658952
  C        34.5235696336       25.5390771563        9.4319106258
  C        34.0329395193       24.4328566492        8.6690435747
  C        40.6133122117       17.0936081994        8.7499082284
  C        40.6021518312       17.1199224532       11.5602278223
  C        28.7196681266       14.0977229780       13.7790015603
  C        28.1129315962       12.9467621985       13.0473147456
  C        28.8498456972       12.2419104985       12.0831503142
  C        28.2702784137       11.1787583235       11.3948755217
  C        26.9375924204       10.7939585718       11.6449567572
  C        26.2187636449       11.4844898484       12.6387486953
  C        26.7970204114       12.5472438702       13.3298828275
  C        26.2968249391        9.7008607862       10.8751076377
  C        26.2891842636        9.7135080601        9.4533586396
  C        26.7878634360       10.8219398294        8.6994058569
  C        18.1353209215        3.1809359322        2.3221818181
  C        17.4059145659        4.2782305511        3.0207678117
  C        16.3904082536        3.9998309460        3.9485019137
  C        15.7426284149        5.0397957017        4.6120092044
  C        16.0943037173        6.3835409027        4.3721274761
  C        17.0834177835        6.6530971630        3.4081030064
  C        17.7325405189        5.6157745864        2.7430503300
  C        15.4700715027        7.4912546365        5.1352259939
  C        15.4854969030        7.4906772933        6.5569388488
  C        16.1871210569        6.4971063252        7.3100993345
  C        42.9458917731       31.8594577351        2.0779336656
  C        43.6462021701       30.7718447649        2.8219269818
  C        44.5921551919       31.0931743825        3.8075867347
  C        45.1977976341       30.0876497431        4.5553140004
  C        44.8711168432       28.7346084739        4.3406876767
  C        43.9448924780       28.4202411793        3.3278443418
  C        43.3361119232       29.4253736788        2.5797555081
  C        45.4887422316       27.6553591632        5.1439188876
  C        45.4929757201       27.6810423524        6.5656128788
  C        44.8059446777       28.6891459319        7.3122162665
  C        14.8565577531        8.5631755168        7.2693242676
  C        14.8747250031        8.5629953199        4.4566552851
  C        42.9464374386       31.9615025090       13.8038489887
  C        43.6915771030       30.8854203721       13.0903093737
  C        44.6563304293       31.1913243500       12.1181605593
  C        45.2778948141       30.1717193232       11.4005168094
  C        44.9538492215       28.8214128887       11.6378797518
  C        44.0201108232       28.5237650496       12.6484233016
  C        43.3917931952       29.5405321631       13.3605411928
  C        45.5629522513       27.7240389757       10.8526408350
  C        45.5334937029       27.7174897340        9.4313409964
  C        44.8271647866       28.7077304492        8.6784026861
  C        35.1264123009       26.6342812282        8.7290472174
  C        35.1154209580       26.6060061064       11.5389168581
  C        18.1485277945        3.2468754861       13.7015527646
  C        17.4299144453        4.3437764293       12.9922423643
  C        16.4147582491        4.0525115120       12.0686167207
  C        15.7664567312        5.0831161868       11.3931544235
  C        16.1209679235        6.4283577341       11.6160374466
  C        17.1121924027        6.7117683633       12.5734450079
  C        17.7598293191        5.6828610021       13.2532474478
  C        15.4905398724        7.5240689457       10.8435499999
  C        15.4965663859        7.5075829629        9.4224156934
  C        16.1933519756        6.5059129746        8.6757024667
  H        10.6724420258       12.4662632486       11.8990299721
  H        11.6945880100       10.5513788691       10.6572108482
  H        15.3911219541       11.1678243417       12.7679005794
  H        14.3506950050       13.0707202459       14.0131131991
  H        13.3759850929       11.6311557803        9.1962473916
  H        50.3225872634       22.7486836847       11.9821196823
  H        49.3193175845       24.6229457313       10.6758949125
  H        45.6415757173       24.1606102591       12.8582146095
  H        46.6625643562       22.2899692048       14.1666746134
  H        47.6296519334       23.5758383073        9.2409566007
  H        14.8717609594        8.5880820584       12.6034512757
  H        50.2871310074       22.7028782165        4.0652316452
  H        49.2691131926       24.5758062851        5.3651741936
  H        45.6101650775       24.1086783176        3.1515141393
  H        46.6522038083       22.2533319264        1.8374103695
  H        47.6077760198       23.5519087999        6.8018377945
  H        40.6329320816       17.0571847361        3.4178688212
  H        48.6870144471       14.0949230398       15.7948534048
  H        10.6811658984       12.4668086603        4.0984976940
  H        11.6894128915       10.5248943556        5.3022756184
  H        15.3930637338       11.1583861169        3.2101714776
  H        14.3645472900       13.0868328315        1.9947929366
  H        13.3756045650       11.6221543792        6.7582426007
  H        47.9300551298       14.2184499424        1.7158470433
  H        47.7798810081       14.3734223511       14.4901200175
  H        49.0821903664       18.5518649004        2.8719834796
  H        10.4158791492       14.1344110230        0.0038076685
  H        24.4819722720        3.0339667861       11.9079345838
  H        25.6168020268        4.8954178038       10.6803894992
  H        23.2352922589        7.7567791553       12.8345890224
  H        22.1194113484        5.8855771474       14.0640803472
  H        23.8089669037        5.7939864441        9.2506629382
  H        36.3699760741       32.1878504944       11.9678756337
  H        35.2428233153       30.3645378104       10.6892072518
  H        37.5124070111       27.4392441008       12.8784863296
  H        38.6189025811       29.2751195862       14.1670532812
  H        37.0104615416       29.4585275699        9.2680577226
  H        25.7192186557        8.6207851728       12.6401806117
  H        36.4533861693       32.2461782977        4.1120166163
  H        35.3364963820       30.4304108389        5.4065628098
  H        37.5226635809       27.4900160291        3.1520566549
  H        38.6137769384       29.3173821817        1.8442037118
  H        37.0295885126       29.4795340631        6.8305035961
  H        46.1090459740       26.5874757005        3.3905710522
  H        44.6681686782       35.1160303611       15.8087790139
  H        24.4432426702        3.0403154182        4.0852749823
  H        25.5784273459        4.8798819646        5.3326093733
  H        23.1714468452        7.7682840670        3.2445928574
  H        22.0483621302        5.9166765907        1.9967818247
  H        23.7966841580        5.7923638402        6.8121737650
  H        44.9533573879       34.3899765335        1.7000448612
  H        44.9010968477       34.2065961947       14.4854258700
  H        40.6655568259       33.2087790737        2.8580358836
  H        23.1506388665        1.9575614877        0.0098609573
  H        25.7997944710       19.6731813902       11.9291726171
  H        23.6334555096       19.7128939754       10.6939200541
  H        22.3588265357       16.2042775086       12.8297333238
  H        24.5338802865       16.1738694082       14.0583429480
  H        23.7234558498       17.6799407006        9.2420710321
  H        35.1556973760       15.4372932953       11.9982040753
  H        37.2753650335       15.3968240448       10.6794548276
  H        38.6894959499       18.8154939232       12.8735826081
  H        36.5643999306       18.8383721396       14.1923125318
  H        37.2224134088       17.3844802574        9.2390162992
  H        20.3560827664       17.9728786466       12.6641020709
  H        35.1340251875       15.4634295000        4.1235286745
  H        37.2739695771       15.3850635080        5.4080445105
  H        38.7443253401       18.7349237006        3.1448447551
  H        36.6049031309       18.7881481518        1.8524113426
  H        37.2318262682       17.3690760883        6.8001574289
  H        35.1430546322       26.6889183111        3.3974803465
  H        28.5106873578       21.0884721465       15.8987919542
  H        25.7589390816       19.6307222006        4.1689489579
  H        23.5735928781       19.6891678115        5.3816963639
  H        22.2978319993       16.1871414197        3.2357459136
  H        24.4823346859       16.1527440800        2.0160832655
  H        23.7023611025       17.6660600674        6.8017881994
  H        29.0027885633       21.7240129759        1.7517509989
  H        29.1575277129       21.7499940044       14.5553398242
  H        32.0811455935       18.5769655700        3.0008304491
  H        27.4089631120       19.0835109609        0.0908132963
  H        14.8497026310       19.6511275234        4.1421188897
  H        17.0123051550       19.6990019252        5.3850841154
  H        18.3027224275       16.1884547971        3.2614455899
  H        16.1359831354       16.1565041065        2.0180700470
  H        16.9213722848       17.7018214061        6.8518328224
  H        46.0910031551       15.4330121031        4.0649929906
  H        43.9645207353       15.3624799743        5.3675168022
  H        42.5373687258       18.7940532738        3.2017081097
  H        44.6644442565       18.8396842604        1.8884613535
  H        44.0159919979       17.3069998318        6.8263333494
  H        20.2913721338       17.9269462917        3.4264064166
  H        46.0425832310       15.3881601140       12.0254894440
  H        43.9132276482       15.3257822866       10.7283367390
  H        42.5218334485       18.7932407822       12.8591337696
  H        44.6571606029       18.8412921625       14.1582457006
  H        44.0061458674       17.2988746714        9.2653102637
  H        46.1986497906       26.6822964870       12.6181769000
  H        52.7411107365       21.0625634982        0.1997602516
  H        14.8800296740       19.6768341477       11.8956032601
  H        17.0809651755       19.7509838568       10.7156280517
  H        18.3326244546       16.2262053771       12.8383182338
  H        16.1338574525       16.1763894557       14.0281425376
  H        16.9416566628       17.7156439552        9.2892688544
  H        52.3221108189       21.6731445841       14.2892965075
  H        52.0129199609       21.7019032854        1.5006399334
  H        49.0670329145       18.6078016149       13.1991522804
  H        13.2472667954       19.0164307136       15.9720257639
  H        29.9330717377       12.4996573401        4.2697075673
  H        28.8769929869       10.5566396163        5.4298874178
  H        25.2609848808       11.1847754402        3.1879450741
  H        26.3391566986       13.1118655312        2.0144301279
  H        27.1548284826       11.6835709675        6.7940443024
  H        31.0018259186       22.7684616454        4.0247014231
  H        32.0109304149       24.6467180726        5.3241406507
  H        35.6906600690       24.1546420840        3.1521744299
  H        34.6609202527       22.2836619343        1.8478769973
  H        33.6947356643       23.5728582775        6.7557513330
  H        25.7207311235        8.5944340317        3.4042291850
  H        30.9501298534       22.6928751564       11.9136626130
  H        31.9692430405       24.5671888753       10.6176324324
  H        35.6124472337       24.1205574419       12.8600920081
  H        34.5737443681       22.2534565235       14.1596000257
  H        33.6733502262       23.5530059902        9.1950265364
  H        40.5978523971       17.0881637350       12.6481078971
  H        32.5095306301       14.1529853085        0.2714596309
  H        29.8801397580       12.5350656336       11.8944845670
  H        28.8493565131       10.6278528950       10.6568904187
  H        25.1880790717       11.1993184831       12.8395945011
  H        26.2392074850       13.0951249875       14.0856990173
  H        27.1423539209       11.6993332397        9.2322920699
  H        33.2906088753       14.1933953255       14.4288692033
  H        33.4030153747       14.4072530415        1.6158475369
  H        32.1418306560       18.5317851339       13.1773320771
  H        30.2112421893       14.1886254939        0.0827782092
  H        16.1184853908        2.9633075404        4.1350447663
  H        14.9533111205        4.8203545796        5.3278023065
  H        17.3655839329        7.6859976164        3.2147655905
  H        18.5143028352        5.8184103019        2.0149133101
  H        16.7536310884        5.7397515889        6.7765762402
  H        44.8286213792       32.1402426453        3.9815644524
  H        45.9378925934       30.3413519173        5.3110417198
  H        43.6818807142       27.3782026306        3.1580073939
  H        42.5991463701       29.1899947912        1.8154356775
  H        44.2304879971       29.4368396937        6.7739128533
  H        14.8507844593        8.5461650046        3.3684385841
  H        44.9000398561       32.2339914393       11.9268708688
  H        46.0249393235       30.4129143782       10.6474157991
  H        43.7628473802       27.4840656514       12.8397436356
  H        42.6450537147       29.3176900119       14.1187375905
  H        44.2686058250       29.4705855462        9.2129762130
  H        35.0740249324       26.6164792709       12.6264553850
  H        36.6050486546       35.1340968646        0.1858347531
  H        16.1437869265        3.0129121617       11.8988206016
  H        14.9741539485        4.8562261857       10.6830507657
  H        17.3954441184        7.7472692018       12.7505408649
  H        18.5425390454        5.8932804931       13.9781917150
  H        16.7647613979        5.7556485831        9.2141356182
  H        36.2787090512       34.4821200771       14.2683328276
  H        36.3809707983       34.2091323599        1.5048231463
  H        40.5798022281       33.2020795254       13.1486039882
  H        17.4708089823        1.9471731286       15.9690498666
  H        29.0825208339       19.4226290709        4.5332064518
  H        28.8137773362       18.5711146765       11.8865073421
  H        30.4948308648       15.6583614853       11.8872930974
  H        30.9742918526       15.5475550987        4.4666804927
  H        27.8913191174       17.9517385432        6.6538638787
  H        28.8478187107       15.7328050060        6.6972041138
  H        30.0953460831       19.8642535373       10.1258513694
  H        32.1200410883       16.0923487286        9.9053956538
  H        18.8541801103        0.8690574419        4.3407736961
  H        40.5277120588       35.2292719381       11.9470338338
  H        42.3238406612       34.4188014774       11.5857869597
  H        22.0877698490        0.6922612265        4.3565380203
  H        11.5970155002       18.7127867928        4.3874144613
  H        52.2647577406       18.4308755470       11.6724670243
  H        49.2545406000       16.4772843805       11.5798038826
  H        10.1496547697       15.7982926557        4.2981873106
  H        50.8497285321       17.6924910581       11.9491725074
  H        10.0456540699       17.3945765237        4.0571118709
  H        20.2155854271        0.0023054489        4.0469987515
  H        39.1833270582       36.1243138668       11.6813204039
 Ni        30.7748845906       17.7693097770       10.9080347101
 Ni        30.7347128389       16.5242163790        7.9113210682
 Ni        29.7556772837       18.6570340677        7.9935991112
 Ni        30.0959715100       17.5247311550        5.4116439212
  O        10.6498822214       14.3652085995       13.4806657660
  O        12.6131814444       14.6575103001       14.5787480774
  O        49.1477187565       16.8459826071       15.9846908373
  O        50.3501060916       20.9360525600       13.6432097994
  O        48.3484768688       20.5932364591       14.6608903149
  O        11.0513947927       17.0539959521       14.4954983605
  O        50.3210010626       20.8816176341        2.4119511719
  O        48.3467113336       20.5866835909        1.3322696835
  O        49.5434951826       18.2484843389        2.0733630440
  O        12.3588841459       18.6245479612        0.0048636233