     586
 i =       17, E =     -4847.6356871969
  C        11.8587434836       14.0537893532       13.7368218110
  C        12.4562578886       12.8909839110       13.0180129136
  C        11.7044696274       12.1716831018       12.0766869713
  C        12.2807774535       11.1093764881       11.3843222037
  C        13.6214552854       10.7397826872       11.6117020672
  C        14.3545183922       11.4431364367       12.5853825982
  C        13.7815427132       12.5080554245       13.2768399851
  C        14.2608990015        9.6488993274       10.8385525840
  C        14.2568027952        9.6569934865        9.4168608615
  C        13.7432447979       10.7589783663        8.6630074322
  C        49.1270626151       21.2338008043       13.8751864257
  C        48.5502509302       22.4010240644       13.1473783563
  C        49.2999018202       23.0686430772       12.1663227771
  C        48.7330298252       24.1076618333       11.4330397855
  C        47.4026270311       24.5095915615       11.6621754123
  C        46.6717320025       23.8604445760       12.6756040596
  C        47.2343431177       22.8155353866       13.4048283531
  C        46.7726050206       25.5870590438       10.8645608964
  C        46.7619204895       25.5573975845        9.4427247089
  C        47.2616988378       24.4422992866        8.6993140307
  C        14.8605256022        8.5706244321        8.7034622485
  C        14.8918848505        8.5970986148       11.5152305429
  C        49.1136550794       21.2038105196        2.1505029022
  C        48.5280894550       22.3649693721        2.8774842754
  C        49.2670381444       23.0255257794        3.8706961903
  C        48.6906984027       24.0600649491        4.6020672534
  C        47.3603417334       24.4570684701        4.3636185298
  C        46.6401909120       23.8122122770        3.3398362022
  C        47.2136445393       22.7761191242        2.6082433783
  C        46.7222018165       25.5320932182        5.1547175989
  C        46.7344039654       25.5285990756        6.5764946527
  C        47.2491070855       24.4290253572        7.3327099817
  C        40.6338087564       17.1505061515        7.3271632211
  C        40.6553553085       17.1835839729        4.5189834927
  C        11.8833223288       14.0870370047        2.2901746226
  C        12.4724367148       12.9112754493        2.9949210169
  C        11.7148961656       12.1773719544        3.9204457378
  C        12.2814169779       11.0951857454        4.5894408786
  C        13.6201915898       10.7213771700        4.3576901575
  C        14.3582317382       11.4369623173        3.3969811958
  C        13.7925536073       12.5178416653        2.7241056827
  C        14.2540231548        9.6247703746        5.1280863025
  C        14.2527978458        9.6448289256        6.5499093666
  C        13.7427769988       10.7537073136        7.2969683985
  C        22.5111498963        3.2450263430       13.7476167965
  C        23.2304864991        4.3484328505       13.0480215845
  C        24.2287125316        4.0649147653       12.1042535556
  C        24.8537168896        5.1046546835       11.4206155220
  C        24.5067642027        6.4478002176       11.6669771358
  C        23.5349325585        6.7188250847       12.6473698413
  C        22.9026325681        5.6834199257       13.3311017825
  C        25.1116447567        7.5547063751       10.8910857324
  C        25.0850237355        7.5435210447        9.4691195351
  C        24.3771157707        6.5487725704        8.7226077997
  C        38.3037159587       31.9277891597       13.8437388290
  C        37.5777521513       30.8384036796       13.1330220786
  C        36.6215839793       31.1379351732       12.1499610438
  C        36.0106501691       30.1139086697       11.4323342680
  C        36.3417681760       28.7656019447       11.6738347495
  C        37.2630007222       28.4743043692       12.6982810782
  C        37.8808018077       29.4965545049       13.4131563219
  C        35.7442078591       27.6710780810       10.8791897743
  C        35.7709533589       27.6891785335        9.4552110195
  C        36.4781448922       28.6887007941        8.7195376147
  C        25.7093952887        8.6119334185        8.7479850986
  C        25.7210586999        8.6259401112       11.5562433388
  C        38.3282428987       31.9615507055        2.1612118985
  C        37.6091263635       30.8877667375        2.9000051809
  C        36.6850705175       31.1945462022        3.9112343599
  C        36.0797759549       30.1728955868        4.6390221930
  C        36.3836765838       28.8202805741        4.3830297182
  C        37.2825191018       28.5260475645        3.3385257040
  C        37.8930299016       29.5424439194        2.6118801624
  C        35.7835692466       27.7185925602        5.1657112944
  C        35.7916789395       27.7110858653        6.5897870056
  C        36.4857652628       28.7003515444        7.3511058296
  C        46.1356675067       26.6208162299        7.2866984103
  C        46.0875282971       26.5798873328        4.4784711623
  C        22.4605958498        3.2552148096        2.2621192007
  C        23.1546190610        4.3644302518        2.9857493701
  C        24.1572457498        4.0766371813        3.9252922618
  C        24.7831902800        5.1062671870        4.6237116312
  C        24.4341032095        6.4525617118        4.3979974785
  C        23.4487662202        6.7326398305        3.4323333462
  C        22.8169973809        5.7036163477        2.7346253870
  C        25.0605826651        7.5494980924        5.1769970314
  C        25.0596831053        7.5423997648        6.6000036410
  C        24.3643926391        6.5463685177        7.3557194996
  C        26.6281068352       17.8464249884       13.7788620382
  C        25.3175603006       17.9087513830       13.0646224805
  C        25.0555249934       18.8914123469       12.0965654508
  C        23.8438358999       18.9204180104       11.4082633040
  C        22.8497762880       17.9536110013       11.6645017693
  C        23.1052047253       16.9736624644       12.6417653560
  C        24.3239597658       16.9505529596       13.3176466074
  C        21.5810850560       17.9329021018       10.8920489686
  C        21.5806127332       17.9076593695        9.4698865264
  C        22.7858061387       17.7826535753        8.7094961374
  C        34.4024243481       17.2731051002       13.8318022973
  C        35.7274548128       17.1596874180       13.1607017277
  C        35.9195843031       16.2100339988       12.1442240766
  C        37.0957687760       16.2141323284       11.4018257265
  C        38.1259096415       17.1352716039       11.6809566148
  C        37.9138498156       18.0855996590       12.6995800529
  C        36.7335414416       18.0996077561       13.4379659478
  C        39.3765019899       17.1508277718       10.8927491955
  C        39.3749349235       17.1756256737        9.4697640740
  C        38.1710543008       17.3034261834        8.7099032938
  C        20.3324287284       17.9252567655        8.7643109138
  C        20.3570102297       17.9357906174       11.5767197117
  C        34.4811778661       17.2294445342        2.1719890254
  C        35.7690026119       17.1838478774        2.9184788264
  C        35.9860068771       16.1987959782        3.8945929394
  C        37.1810636035       16.1845616680        4.6077781395
  C        38.1783712955       17.1545289264        4.3862105461
  C        37.9582639245       18.1059426251        3.3730336828
  C        36.7697627143       18.1295968653        2.6495623789
  C        39.4234449312       17.1779793824        5.1813041239
  C        39.3979307237       17.1852629929        6.6031285697
  C        38.1803982330       17.3059313652        7.3419960914
  C        35.1592320780       26.6319752757        7.2932190178
  C        35.1977513631       26.6458224740        4.4836762688
  C        26.5554291606       17.8240651929        2.3286468326
  C        25.2499377615       17.8726675881        3.0453647895
  C        24.9978004251       18.8728531881        3.9966353346
  C        23.7737708583       18.9003758471        4.6576626103
  C        22.7924547344       17.9186501537        4.4135661734
  C        23.0469027087       16.9490807309        3.4262183912
  C        24.2676791586       16.9121724449        2.7554725961
  C        21.5262001800       17.9001218574        5.1809710033
  C        21.5502085690       17.8915314666        6.6024425721
  C        22.7694866284       17.7736024012        7.3433955201
  C        14.0461873180       17.8282896745        2.2937832347
  C        15.3509828286       17.8841059355        3.0198889789
  C        15.6067939017       18.8855246546        3.9695150460
  C        16.8158872379       18.9057326640        4.6623630000
  C        17.8020404922       17.9257863204        4.4308140570
  C        17.5517768110       16.9506466913        3.4469463500
  C        16.3423406353       16.9252743899        2.7553932804
  C        19.0715232394       17.9090560107        5.1990227914
  C        19.0699205380       17.9016099770        6.6215753372
  C        17.8628461000       17.8039013013        7.3826326147
  C        46.8053700358       17.2197898377        2.1648864829
  C        45.5190602406       17.1643697869        2.9134522507
  C        45.3125919340       16.1923502212        3.9047041181
  C        44.1322039098       16.1829889287        4.6420990522
  C        43.1311261899       17.1467060182        4.4101548575
  C        43.3336194181       18.0960919178        3.3899689747
  C        44.5156237855       18.1110239205        2.6554102929
  C        41.8794465728       17.1702360637        5.1971129658
  C        41.8816085782       17.1612125216        6.6203227191
  C        43.0888588764       17.2496732167        7.3800346563
  C        20.3169264990       17.9157215234        7.3295775179
  C        20.2942053446       17.8920469050        4.5146116165
  C        46.7840020912       17.2305149138       13.8848890400
  C        45.4806720875       17.1268705428       13.1730223849
  C        45.2618807848       16.1328856296       12.2067974982
  C        44.0743436608       16.1141735064       11.4804493776
  C        43.0737318099       17.0789893058       11.7095353265
  C        43.2857396994       18.0428571288       12.7132503986
  C        44.4748655483       18.0712470727       13.4336217501
  C        41.8323677882       17.1129687935       10.9083516795
  C        41.8578921725       17.1304435330        9.4860004871
  C        43.0767911219       17.2416399625        8.7479748759
  C        46.1540215423       26.6375430930        8.7212493434
  C        46.1620195220       26.6555883419       11.5310190929
  C        14.0447106958       17.8317713980       13.7041824445
  C        15.3668962021       17.9062499209       13.0141519476
  C        15.6407290699       18.9188071953       12.0825392460
  C        16.8701701392       18.9551618455       11.4279197353
  C        17.8550928752       17.9783409856       11.6784119904
  C        17.5867922650       16.9934682363       12.6463783073
  C        16.3596481246       16.9566201325       13.3047305386
  C        19.1236493219       17.9541634608       10.9105934087
  C        19.0973585040       17.9253442916        9.4891217813
  C        17.8777307354       17.8106555830        8.7485958924
  C        28.7979286262       14.0875078387        2.3951544347
  C        28.1901588161       12.9094617733        3.0767057305
  C        28.9141589883       12.1834009890        4.0353414443
  C        28.3229467432       11.1024146143        4.6842736422
  C        26.9894149814       10.7377468521        4.4078843872
  C        26.2774044068       11.4570083844        3.4306994969
  C        26.8671162282       12.5387255132        2.7824796935
  C        26.3189963413        9.6607430788        5.1692730845
  C        26.3023357595        9.6871470507        6.5896730909
  C        26.8127924294       10.7956585353        7.3370659963
  C        32.1832077647       21.2514616512        2.1463941956
  C        32.7729179848       22.4077263492        2.8746632182
  C        32.0350727656       23.0815535033        3.8605609917
  C        32.6162866794       24.1145222486        4.5870312528
  C        33.9481482513       24.5030620709        4.3416909366
  C        34.6656859606       23.8555473354        3.3176709312
  C        34.0881562782       22.8126255391        2.5979491193
  C        34.5751546726       25.5783917048        5.1380431925
  C        34.5721378854       25.5480329631        6.5612718903
  C        34.0719496088       24.4325206002        7.3013869444
  C        25.6990736972        8.6093429293        7.3134806613
  C        25.6713949663        8.6139521955        4.5006231619
  C        32.1196581718       21.2338158324       13.8770676690
  C        32.6999367321       22.3763388471       13.1162250825
  C        31.9656121547       23.0337436404       12.1139069896
  C        32.5571148252       24.0570346661       11.3792102849
  C        33.8850846700       24.4559550003       11.6384899763
  C        34.5952075322       23.8140249399       12.6726933163
  C        34.0140507830       22.7822639620       13.4039174508
  C        34.5335764654       25.5303896845       10.8580178873
  C        34.5456335451       25.5276909855        9.4339160097
  C        34.0535056436       24.4255671551        8.6698368487
  C        40.6213001936       17.1401682475        8.7612133987
  C        40.6007301896       17.1477656109       11.5703129363
  C        28.7312295792       14.1072729860       13.7348057605
  C        28.1331253434       12.9201225065       13.0589098681
  C        28.8759404668       12.2359413373       12.0820761883
  C        28.3009390194       11.1680604639       11.3967537993
  C        26.9680409000       10.7854380092       11.6527705308
  C        26.2379553731       11.4782719361       12.6369378654
  C        26.8073189278       12.5453352560       13.3270041845
  C        26.3353511564        9.6889679960       10.8810332425
  C        26.3195508223        9.6974138050        9.4588206804
  C        26.8195382882       10.8037473474        8.7028691831
  C        18.1360454017        3.1810799412        2.3221636366
  C        17.4058149870        4.2780190694        3.0206814249
  C        16.3904641973        3.9998521114        3.9486153936
  C        15.7425939070        5.0398713785        4.6119795707
  C        16.0947322491        6.3834938677        4.3722790579
  C        17.0839604189        6.6530882603        3.4083835564
  C        17.7330230393        5.6155369624        2.7436449685
  C        15.4706973627        7.4915260603        5.1350849937
  C        15.4856376001        7.4906429756        6.5567951045
  C        16.1872492522        6.4971918584        7.3101369396
  C        42.9461965268       31.8597108853        2.0781227458
  C        43.6461988710       30.7719172510        2.8219635245
  C        44.5920086606       31.0931313579        3.8078304942
  C        45.1972370183       30.0874822395        4.5556917794
  C        44.8717044404       28.7342058760        4.3405995799
  C        43.9451894318       28.4205157858        3.3278113459
  C        43.3365180218       29.4254258603        2.5793651096
  C        45.4891147837       27.6551757934        5.1441838785
  C        45.4935125435       27.6814002744        6.5659415242
  C        44.8057653363       28.6890874525        7.3122877246
  C        14.8569904549        8.5632785663        7.2692306870
  C        14.8749821263        8.5631647526        4.4566892151
  C        42.9460550118       31.9613827704       13.8028845907
  C        43.6924346000       30.8852329159       13.0910105207
  C        44.6561491912       31.1911500814       12.1178080624
  C        45.2779380808       30.1714406094       11.4005982677
  C        44.9537872586       28.8210804867       11.6377638220
  C        44.0207231054       28.5237534653       12.6490648874
  C        43.3917079781       29.5404103405       13.3607209467
  C        45.5636555386       27.7240002434       10.8528312958
  C        45.5336360856       27.7175387494        9.4314542867
  C        44.8273573959       28.7077160892        8.6785300160
  C        35.1489173939       26.6212457090        8.7283986940
  C        35.1454897114       26.5915878456       11.5366046725
  C        18.1491719021        3.2472251641       13.7014345679
  C        17.4295828442        4.3438487774       12.9925484936
  C        16.4149394019        4.0524493987       12.0684311238
  C        15.7664087550        5.0831745625       11.3933330982
  C        16.1209627517        6.4284253745       11.6160018339
  C        17.1124243868        6.7117534861       12.5731880551
  C        17.7600122567        5.6828711466       13.2530402353
  C        15.4905981882        7.5241721134       10.8435245492
  C        15.4968904311        7.5076495040        9.4224000825
  C        16.1933783223        6.5057433984        8.6757362727
  H        10.6723109765       12.4657535178       11.8994871916
  H        11.6945920710       10.5508725347       10.6576786215
  H        15.3915231979       11.1685596262       12.7671965463
  H        14.3507149243       13.0715253311       14.0122801029
  H        13.3757909720       11.6310203917        9.1961394600
  H        50.3225229172       22.7482970351       11.9817925733
  H        49.3196637865       24.6226999464       10.6754508032
  H        45.6422592093       24.1613823355       12.8587120183
  H        46.6630802303       22.2903931997       14.1668295176
  H        47.6297091667       23.5758205059        9.2411832199
  H        14.8717141591        8.5880758053       12.6035203349
  H        50.2870276290       22.7025078290        4.0654875001
  H        49.2691197795       24.5752194297        5.3657305487
  H        45.6107811049       24.1095455140        3.1509113171
  H        46.6526840347       22.2541711657        1.8366021197
  H        47.6077214613       23.5517364978        6.8020084683
  H        40.6609828721       17.1583908590        3.4306419969
  H        48.6872231998       14.0949216289       15.7950863496
  H        10.6814797269       12.4664797900        4.0982800784
  H        11.6896949032       10.5244920775        5.3019658692
  H        15.3936212039       11.1591699354        3.2107749524
  H        14.3645718751       13.0875798781        1.9956633671
  H        13.3755239753       11.6220257006        6.7581405728
  H        47.9300569173       14.2189899811        1.7154912602
  H        47.7801851401       14.3747590713       14.4895147430
  H        49.0830209262       18.5524597246        2.8720304755
  H        10.4155236194       14.1343604424        0.0036889083
  H        24.4841412438        3.0248866043       11.9134011690
  H        25.6285225326        4.8840030401       10.6894701969
  H        23.2593351937        7.7533054449       12.8420959115
  H        22.1313187402        5.8875466304       14.0699320554
  H        23.8174097648        5.7910337724        9.2631733921
  H        36.3836649348       32.1801359582       11.9504953079
  H        35.2714860868       30.3486839661       10.6694717943
  H        37.5262710457       27.4361755414       12.8911163941
  H        38.6217599498       29.2787950826       14.1787067052
  H        37.0449317254       29.4373442051        9.2651643555
  H        25.7483405318        8.6069696834       12.6442534182
  H        36.4602409604       32.2373481112        4.1229660489
  H        35.3590405473       30.4123613326        5.4178108828
  H        37.5306406440       27.4867166758        3.1329186722
  H        38.6124013107       29.3203896556        1.8274190788
  H        37.0620031660       29.4573309044        6.8267584838
  H        46.1089887740       26.5873686584        3.3904276628
  H        44.6677499374       35.1155145258       15.8089641744
  H        24.4360247886        3.0384681160        4.0908710301
  H        25.5671116175        4.8781646672        5.3427920239
  H        23.1644140076        7.7673083239        3.2513410123
  H        22.0447915379        5.9162201910        1.9987822155
  H        23.7903922249        5.7927623724        6.8243637396
  H        44.9521368352       34.3894717603        1.6994988725
  H        44.8999143424       34.2062743574       14.4854981786
  H        40.6639474368       33.2077613896        2.8570024798
  H        23.1513008342        1.9567078018        0.0104793832
  H        25.8140994302       19.6502708016       11.9156262384
  H        23.6461640541       19.7008830640       10.6766795603
  H        22.3521139884       16.2155139779       12.8442359858
  H        24.5276458727       16.1918662671       14.0695640041
  H        23.7243444223       17.6627827866        9.2428162778
  H        35.1318613298       15.4907676294       11.9348359533
  H        37.2613484265       15.4523735137       10.6433458618
  H        38.6996492145       18.8077375981       12.9134989116
  H        36.5645959546       18.8413825183       14.2153871860
  H        37.2319049021       17.4379416265        9.2387785341
  H        20.3587740099       17.9806917608       12.6644687870
  H        35.2147238558       15.4542792753        4.0765369459
  H        37.3476427615       15.4260794262        5.3693098077
  H        38.7234264182       18.8588606280        3.1983147547
  H        36.5912858458       18.8886284637        1.8923286608
  H        37.2517484533       17.4426098069        6.7949660746
  H        35.1681117774       26.6713556549        3.3960432056
  H        28.5016799584       21.0833758125       15.9609516761
  H        25.7617845170       19.6232814913        4.1857694591
  H        23.5728586947       19.6777626550        5.3912541168
  H        22.2944779288       16.1875165789        3.2305672894
  H        24.4776477479       16.1480357044        2.0108421229
  H        23.7029342174       17.6469195011        6.8029383502
  H        28.9969933616       21.7123518022        1.7590355981
  H        29.1815589385       21.7220484916       14.6314038647
  H        32.0905327954       18.5823116419        3.0205701184
  H        27.3815970094       19.0251718353        0.0835942067
  H        14.8483714050       19.6442301609        4.1495241393
  H        17.0107739614       19.6875485072        5.3933128073
  H        18.3021628464       16.1860121190        3.2566012658
  H        16.1354544580       16.1580999746        2.0129738246
  H        16.9220757889       17.6850481346        6.8528394532
  H        46.0929167540       15.4578612717        4.0886272330
  H        43.9711608346       15.4231062397        5.4036367755
  H        42.5678924226       18.8480365452        3.2103827147
  H        44.6897711990       18.8598016439        1.8864566756
  H        44.0317579145       17.3672446063        6.8536592608
  H        20.2901752574       17.9234902634        3.4264824253
  H        46.0368607037       15.3920320839       12.0245692444
  H        43.9039363561       15.3442107470       10.7310652721
  H        42.5196939431       18.7942198091       12.8934815331
  H        44.6594194980       18.8332155320       14.1865839090
  H        44.0114536910       17.3357707180        9.2931889357
  H        46.1987053403       26.6823559250       12.6184524293
  H        52.7410528930       21.0623679848        0.1997224178
  H        14.8794496566       19.6717375649       11.8897086975
  H        17.0800975288       19.7449933510       10.7096872115
  H        18.3379356151       16.2325394603       12.8481711658
  H        16.1385589943       16.1836215749       14.0368519340
  H        16.9434184129       17.7027063287        9.2911036306
  H        52.3211866466       21.6730289503       14.2894337531
  H        52.0119937816       21.7014133479        1.5009454947
  H        49.0661741126       18.6077769357       13.1995873927
  H        13.2469315471       19.0168558058       15.9721169477
  H        29.9465083339       12.4541861885        4.2470802355
  H        28.8797566708       10.5200731004        5.4160728475
  H        25.2448384812       11.1926738746        3.2088600099
  H        26.3312269095       13.1139715596        2.0321332418
  H        27.1751402414       11.6658083716        6.7976367294
  H        31.0165476345       22.7554523585        4.0544356964
  H        32.0372938631       24.6309537477        5.3493639399
  H        35.6961912869       24.1528834675        3.1338449252
  H        34.6553932706       22.2873327924        1.8332779524
  H        33.7184338115       23.5624259111        6.7549960399
  H        25.7041212608        8.5934779909        3.4125978800
  H        30.9351623163       22.7317918274       11.9375996404
  H        31.9861780735       24.5696187733       10.6080917573
  H        35.6204364221       24.1157621025       12.8790437747
  H        34.5695234226       22.2602169947       14.1796861723
  H        33.6990091528       23.5449201177        9.1979374099
  H        40.5902120852       17.1014677005       12.6578356953
  H        32.5224467369       14.1284951354        0.3289446046
  H        29.9151415399       12.5094584407       11.9138050828
  H        28.8985342961       10.6127062868       10.6775766625
  H        25.2130615089       11.1761945350       12.8384895670
  H        26.2415120793       13.0952067482       14.0756799433
  H        27.1775721866       11.6791245807        9.2364663988
  H        33.2864605271       14.1721842992       14.4230013069
  H        33.4150352460       14.4197753004        1.6639109142
  H        32.0819676125       18.5303981104       13.1683853556
  H        30.2303450287       14.1720404336        0.1315284406
  H        16.1183421567        2.9633010141        4.1347976379
  H        14.9530863333        4.8204588986        5.3275670750
  H        17.3662484656        7.6859396996        3.2149960791
  H        18.5146277328        5.8178816025        2.0152465564
  H        16.7532712478        5.7393951930        6.7767390821
  H        44.8281345910       32.1402138072        3.9821185321
  H        45.9371910714       30.3413022477        5.3115187439
  H        43.6825650445       27.3784253760        3.1576969596
  H        42.5994852494       29.1899720578        1.8151475904
  H        44.2301695188       29.4365827995        6.7738726962
  H        14.8511357949        8.5461194382        3.3684858151
  H        44.8997598689       32.2339287571       11.9269575666
  H        46.0245396141       30.4129480008       10.6471795645
  H        43.7634314091       27.4839996903       12.8401052783
  H        42.6453711917       29.3173670855       14.1192819581
  H        44.2683032768       29.4702469580        9.2130366811
  H        35.1053600507       26.6021532922       12.6243370908
  H        36.6045763520       35.1336283718        0.1857502463
  H        16.1436745311        3.0128317914       11.8990219614
  H        14.9741056091        4.8562877673       10.6832325503
  H        17.3956320089        7.7471905131       12.7506009561
  H        18.5426245007        5.8928617807       13.9782285894
  H        16.7643376702        5.7552305003        9.2142917750
  H        36.2796589899       34.4816553007       14.2689752061
  H        36.3826566637       34.2086005209        1.5053964515
  H        40.5788496198       33.2011493930       13.1492087907
  H        17.4704311364        1.9468355902       15.9689849183
  H        28.7255279793       19.0872111283        4.3206978958
  H        30.0467852835       19.8254792605       11.7527882954
  H        32.1060049131       15.9825049641       11.4866370950
  H        31.0079869974       15.4894626145        4.4878475580
  H        28.1704084940       17.3356489962        6.6275719310
  H        29.4174489076       15.1495220275        6.4607890112
  H        31.8572646671       20.5075102530        9.1538110949
  H        32.6960004292       17.3612894178        9.4375722758
  H        28.7613451914       17.1686462841        9.0426334212
  H        18.8532660129        0.8691760780        4.3404590037
  H        40.5277130566       35.2292196793       11.9470863444
  H        42.3224625394       34.4176411180       11.5867054432
  H        22.0882846490        0.6922978704        4.3570410408
  H        11.5969529657       18.7131475419        4.3873819002
  H        52.2647203270       18.4304345427       11.6721484030
  H        49.2547815042       16.4778347365       11.5800706675
  H        10.1502777032       15.7989204197        4.2976060129
  H        50.8495347530       17.6924552299       11.9493346354
  H        10.0463856839       17.3937995881        4.0572391058
  H        20.2144067644        0.0017343153        4.0472299118
  H        39.1832389873       36.1243416592       11.6813928292
 Ni        30.6384976237       17.8473660620       10.6607703563
 Ni        31.2670042907       16.3031933541        7.9720553115
 Ni        29.9832327416       18.8132359441        7.3895277127
 Ni        29.9977983076       17.4313264590        5.1260242482
  O        10.6501107320       14.3637701893       13.4798621184
  O        12.6126716241       14.6579595787       14.5797057925
  O        49.1475178580       16.8463351244       15.9850326493
  O        50.3504656435       20.9350039535       13.6436543609
  O        48.3480124328       20.5932041684       14.6598007056
  O        11.0513136413       17.0542269875       14.4967742006
  O        50.3216410667       20.8806112971        2.4110307722
  O        48.3461715933       20.5876965708        1.3331293217
  O        49.5423169268       18.2466522814        2.0732419023