     586
 i =      114, E =     -4847.7604083826
  C        11.8586585736       14.0536722947       13.7365260881
  C        12.4562048059       12.8907367264       13.0180749612
  C        11.7042687518       12.1712562608       12.0770552719
  C        12.2806089172       11.1090012234       11.3847151902
  C        13.6214307959       10.7398111993       11.6118725642
  C        14.3549672860       11.4440150384       12.5845821483
  C        13.7820713675       12.5090393503       13.2760254403
  C        14.2609125630        9.6490152866       10.8385718737
  C        14.2561886195        9.6568305721        9.4168686051
  C        13.7428814829       10.7588785032        8.6629489589
  C        49.1269663616       21.2330894580       13.8745560291
  C        48.5502166554       22.4011788275       13.1474393432
  C        49.3003063390       23.0685594016       12.1665605608
  C        48.7333977074       24.1077482661       11.4333669996
  C        47.4028451617       24.5093030714       11.6619657541
  C        46.6718387507       23.8603730435       12.6753869533
  C        47.2342699926       22.8154268634       13.4047061318
  C        46.7725519087       25.5870140122       10.8647219041
  C        46.7613106289       25.5573371804        9.4429587426
  C        47.2611906191       24.4422018131        8.6994871703
  C        14.8601610101        8.5704924423        8.7036347732
  C        14.8917109715        8.5970998449       11.5152406111
  C        49.1132081608       21.2031822738        2.1505231563
  C        48.5279471068       22.3649070359        2.8775039960
  C        49.2671511328       23.0255402246        3.8704605317
  C        48.6908630876       24.0601555267        4.6019102240
  C        47.3603698159       24.4567046705        4.3638863003
  C        46.6398870075       23.8117280903        3.3404830483
  C        47.2134010506       22.7757549602        2.6087417634
  C        46.7219283101       25.5317671865        5.1548337584
  C        46.7334411359       25.5280865828        6.5765435683
  C        47.2488926723       24.4288829945        7.3329336055
  C        40.6222511865       17.1450165919        7.3077032685
  C        40.6365533253       17.1456005328        4.4976270919
  C        11.8830716049       14.0866884703        2.2907129951
  C        12.4725313459       12.9108733279        2.9949994519
  C        11.7146857896       12.1770248979        3.9203076473
  C        12.2813427696       11.0945760735        4.5887239804
  C        13.6204943358       10.7216263107        4.3576673206
  C        14.3588834270       11.4379961031        3.3978016188
  C        13.7934240253       12.5191652811        2.7251023358
  C        14.2540439681        9.6247393560        5.1280071387
  C        14.2525609567        9.6445480185        6.5498523015
  C        13.7424287804       10.7533885582        7.2969026141
  C        22.5133519275        3.2447733566       13.7479345063
  C        23.2313021638        4.3489435332       13.0488681267
  C        24.2297044995        4.0658251378       12.1049323736
  C        24.8615285541        5.1030439625       11.4235981274
  C        24.5114286289        6.4461884724       11.6660380280
  C        23.5408708230        6.7209215367       12.6468088952
  C        22.9043689063        5.6853801916       13.3267036194
  C        25.1217459930        7.5503151092       10.8895095338
  C        25.0904065565        7.5434448606        9.4678559131
  C        24.3848709060        6.5454796021        8.7232056230
  C        38.3042886668       31.9286414047       13.8425187842
  C        37.5780063901       30.8371167135       13.1309764613
  C        36.6189862205       31.1380447419       12.1518506756
  C        36.0047226922       30.1157850042       11.4334192000
  C        36.3345855938       28.7673144064       11.6725883700
  C        37.2650236401       28.4737669325       12.6871862878
  C        37.8834621856       29.4947923335       13.4042511686
  C        35.7329349500       27.6740223731       10.8761618135
  C        35.7628621530       27.6886766526        9.4546599771
  C        36.4695562931       28.6900221303        8.7167919841
  C        25.7134626142        8.6121935606        8.7461648232
  C        25.7254646521        8.6227602354       11.5581060190
  C        38.3293031818       31.9616812749        2.1616452703
  C        37.6070714524       30.8865916414        2.9015481593
  C        36.6785760652       31.1927610827        3.9080877062
  C        36.0698358056       30.1723737364        4.6363874552
  C        36.3756268415       28.8204523904        4.3818488356
  C        37.2821854424       28.5241760637        3.3456933367
  C        37.8931100286       29.5410887921        2.6187928693
  C        35.7689334047       27.7200549108        5.1656958498
  C        35.7813092274       27.7121555264        6.5877387165
  C        36.4781831723       28.7014639577        7.3502579133
  C        46.1355028185       26.6207725612        7.2866745419
  C        46.0880786205       26.5801760705        4.4787726490
  C        22.4616299523        3.2554990118        2.2625023362
  C        23.1570188395        4.3629614608        2.9858762626
  C        24.1603220011        4.0747162685        3.9247731235
  C        24.7897866853        5.1032403881        4.6217469250
  C        24.4365230610        6.4495987545        4.4016325174
  C        23.4567073480        6.7311950524        3.4307592293
  C        22.8225681264        5.7028957880        2.7343845161
  C        25.0693691495        7.5466868854        5.1754340823
  C        25.0646106359        7.5404654785        6.5983264248
  C        24.3711547652        6.5448540388        7.3564778666
  C        26.6234852526       17.8639366220       13.7763069891
  C        25.3163290859       17.9137698841       13.0546408747
  C        25.0618197744       18.9042222980       12.0922905445
  C        23.8478599240       18.9262164773       11.4081544400
  C        22.8512984793       17.9613745281       11.6628134389
  C        23.1023850392       16.9952698903       12.6556350746
  C        24.3176757879       16.9675506242       13.3380532542
  C        21.5785862529       17.9436324422       10.8975341770
  C        21.5797441099       17.9196703383        9.4748385470
  C        22.7856065412       17.7961405187        8.7155396792
  C        34.4199662734       17.2273908479       13.8734572503
  C        35.7094506685       17.1815174174       13.1282902846
  C        35.9184755500       16.2196480928       12.1272941406
  C        37.1052791164       16.2072669186       11.4007755352
  C        38.1163536645       17.1549368753       11.6547125122
  C        37.9104193913       18.0957438697       12.6817643042
  C        36.7220746233       18.1121752786       13.4077825320
  C        39.3729888356       17.1653109778       10.8726220328
  C        39.3672892841       17.1773136330        9.4508634120
  C        38.1603855639       17.3000922117        8.6927256660
  C        20.3335861838       17.9350357674        8.7651594407
  C        20.3531418424       17.9458283927       11.5789738697
  C        34.4251827076       17.2140234577        2.2264944286
  C        35.7358669655       17.1315230260        2.9283391111
  C        35.9487418033       16.1698288891        3.9279356050
  C        37.1481688491       16.1580487207        4.6354477935
  C        38.1555788474       17.1055456286        4.3722731052
  C        37.9455488103       18.0409349778        3.3407019675
  C        36.7489098359       18.0577663797        2.6300980291
  C        39.4057175753       17.1371469548        5.1632493079
  C        39.3846970290       17.1629480324        6.5848148997
  C        38.1680730701       17.2904355788        7.3264643553
  C        35.1493151225       26.6341466861        7.2921682262
  C        35.1768582039       26.6502101021        4.4828841142
  C        26.5711433624       17.8250722247        2.3375508561
  C        25.2607666090       17.8846374119        3.0418034420
  C        25.0195190769       18.8651661941        4.0163077613
  C        23.8013964294       18.8972746772        4.6885784473
  C        22.7969168385       17.9487622225        4.4119764999
  C        23.0338152524       16.9928814480        3.4061177610
  C        24.2516857630       16.9580651785        2.7320622589
  C        21.5339068610       17.9270831266        5.1845999392
  C        21.5571676301       17.9092168005        6.6065419101
  C        22.7748579653       17.7910011579        7.3494001673
  C        14.0479251632       17.8291777235        2.2947850443
  C        15.3533910609       17.8895585986        3.0189446919
  C        15.6060261274       18.8896759881        3.9712028457
  C        16.8149512275       18.9133093319        4.6644601809
  C        17.8068496887       17.9396635426        4.4286788815
  C        17.5587838639       16.9639278684        3.4444300964
  C        16.3490639773       16.9352647770        2.7529895820
  C        19.0763414186       17.9251766409        5.1985599299
  C        19.0748190927       17.9153705212        6.6212985924
  C        17.8680542636       17.8093108946        7.3817491257
  C        46.8048190112       17.2194110200        2.1633292329
  C        45.5123711121       17.1572624818        2.9042770131
  C        45.3046096049       16.1830664046        3.8928111363
  C        44.1202132999       16.1662459895        4.6245085561
  C        43.1147501238       17.1242706815        4.3897096477
  C        43.3195858481       18.0778172323        3.3744475934
  C        44.5048396263       18.0987199404        2.6441347695
  C        41.8607353856       17.1398186721        5.1762867030
  C        41.8681218997       17.1515127157        6.5980622927
  C        43.0772184738       17.2517149483        7.3559073923
  C        20.3215330227       17.9279584258        7.3301943481
  C        20.3013066148       17.9150388379        4.5177267006
  C        46.7836594369       17.2337827984       13.8803968210
  C        45.4813896460       17.1370754087       13.1588092206
  C        45.2589044742       16.1459024506       12.1906684355
  C        44.0715643734       16.1290787506       11.4619712083
  C        43.0748424918       17.0994702117       11.6843376177
  C        43.2875851476       18.0599824763       12.6910381328
  C        44.4758950825       18.0833281394       13.4146819754
  C        41.8276691788       17.1295890298       10.8872159585
  C        41.8510606737       17.1454435226        9.4656711105
  C        43.0695722957       17.2456377861        8.7227914262
  C        46.1532675358       26.6372179193        8.7212264744
  C        46.1627501468       26.6561989939       11.5308603311
  C        14.0459710236       17.8320904377       13.7038587636
  C        15.3669912239       17.9072314685       13.0138762747
  C        15.6383453803       18.9196191086       12.0813162504
  C        16.8674814965       18.9574912265       11.4268126725
  C        17.8533187317       17.9820534018       11.6788363547
  C        17.5889453528       16.9992554484       12.6500905885
  C        16.3617122960       16.9606443498       13.3078936156
  C        19.1212352406       17.9582729507       10.9109225263
  C        19.0981500463       17.9310432262        9.4893443469
  C        17.8793525890       17.8165691274        8.7478858525
  C        28.8057990262       14.0866517554        2.3941764808
  C        28.1956640764       12.9155028179        3.0827783549
  C        28.9225064031       12.1745048538        4.0268285514
  C        28.3246521264       11.0984022108        4.6776302732
  C        26.9884101247       10.7394073028        4.4081927512
  C        26.2838031223       11.4617067135        3.4283541792
  C        26.8782952541       12.5381966140        2.7756406335
  C        26.3210353752        9.6594101242        5.1703565587
  C        26.3118276798        9.6852116000        6.5912392017
  C        26.8150053485       10.7994638717        7.3347205459
  C        32.1776342988       21.2318932404        2.1546232707
  C        32.7709807028       22.3973724418        2.8721297693
  C        32.0218678217       23.0821362125        3.8414609219
  C        32.5933587584       24.1224246295        4.5673854431
  C        33.9297586958       24.5063510149        4.3440624081
  C        34.6614168544       23.8415322712        3.3418761916
  C        34.0922882733       22.7957628199        2.6181812001
  C        34.5604365264       25.5816712271        5.1430836838
  C        34.5526736772       25.5527653448        6.5645985878
  C        34.0394622550       24.4396010793        7.3027517765
  C        25.7041617193        8.6073677731        7.3115586721
  C        25.6837950116        8.6085414566        4.4979870974
  C        32.1037769695       21.2231659286       13.8760349853
  C        32.6974221873       22.3689941869       13.1267460275
  C        31.9636699099       23.0311444471       12.1300007479
  C        32.5457148496       24.0610182554       11.3945262288
  C        33.8752596788       24.4592222527       11.6368184249
  C        34.5920408500       23.8094373188       12.6599983229
  C        34.0151815547       22.7739706663       13.3908343840
  C        34.5163354928       25.5407515875       10.8533752695
  C        34.5296600998       25.5323985403        9.4314282634
  C        34.0277824257       24.4307563185        8.6693444608
  C        40.6132297167       17.1468631383        8.7423027736
  C        40.5965496386       17.1586045364       11.5525791535
  C        28.7498838752       14.0700238358       13.8107650443
  C        28.1471008388       12.9220760805       13.0703160875
  C        28.8798473608       12.2431004009       12.0836064619
  C        28.3028705373       11.1835183545       11.3863186839
  C        26.9784390374       10.7773505732       11.6491196469
  C        26.2648903872       11.4450121597       12.6623298249
  C        26.8386306689       12.5048795004       13.3612308290
  C        26.3370818837        9.6850533973       10.8788459739
  C        26.3204454898        9.6992519681        9.4570659293
  C        26.8159439068       10.8071307063        8.7002532898
  C        18.1350850932        3.1810833061        2.3220251785
  C        17.4066846616        4.2782798338        3.0213160443
  C        16.3906491411        3.9999508006        3.9485431225
  C        15.7430784855        5.0399442524        4.6121356754
  C        16.0946698380        6.3837308705        4.3722129742
  C        17.0839936664        6.6531754151        3.4083373347
  C        17.7329401434        5.6158630525        2.7431348870
  C        15.4704424150        7.4914030748        5.1353383288
  C        15.4854769801        7.4905211763        6.5570530034
  C        16.1869833827        6.4968877949        7.3102420644
  C        42.9459136950       31.8594685659        2.0780936561
  C        43.6464298152       30.7718981295        2.8218457332
  C        44.5916139505       31.0932500198        3.8082656942
  C        45.1973847793       30.0877233840        4.5558863268
  C        44.8713231185       28.7345873917        4.3408270028
  C        43.9459101972       28.4202516464        3.3272097972
  C        43.3370264607       29.4253504189        2.5791865462
  C        45.4888263557       27.6552848430        5.1440526596
  C        45.4928727494       27.6809319952        6.5657408380
  C        44.8058357364       28.6890079032        7.3123689491
  C        14.8565061013        8.5630083967        7.2694124468
  C        14.8753371842        8.5632722005        4.4567143550
  C        42.9468800306       31.9615766073       13.8042196066
  C        43.6918905760       30.8855645975       13.0905478945
  C        44.6561498520       31.1914820100       12.1178951362
  C        45.2776447124       30.1719450388       11.4000989507
  C        44.9543957795       28.8215530294       11.6381411606
  C        44.0216111240       28.5238634406       12.6495958535
  C        43.3934012477       29.5405901195       13.3618521924
  C        45.5633043300       27.7241506022       10.8528391713
  C        45.5334442634       27.7174450185        9.4315427232
  C        44.8271167612       28.7076450888        8.6785548830
  C        35.1386982133       26.6230985708        8.7269619798
  C        35.1285904310       26.5983884346       11.5368711822
  C        18.1481706027        3.2470356844       13.7017855332
  C        17.4305357631        4.3438240318       12.9917818068
  C        16.4148674667        4.0525517538       12.0686693159
  C        15.7666236396        5.0831543229       11.3932138250
  C        16.1209354880        6.4284635567       11.6161826789
  C        17.1122906160        6.7118293386       12.5734865638
  C        17.7598983353        5.6829671913       13.2533605966
  C        15.4905299919        7.5241398870       10.8436615371
  C        15.4963275771        7.5073655440        9.4225297024
  C        16.1931229236        6.5056773864        8.6758464669
  H        10.6719244674       12.4649446408       11.9005603687
  H        11.6940905927       10.5500934946       10.6586832875
  H        15.3922705463       11.1700046061       12.7656473276
  H        14.3518169905       13.0728685004       14.0107806750
  H        13.3756873471       11.6308987439        9.1963122948
  H        50.3230443293       22.7485365284       11.9819059787
  H        49.3199812508       24.6230696723       10.6758946553
  H        45.6423416568       24.1611458492       12.8585220141
  H        46.6633010762       22.2900657316       14.1667522154
  H        47.6298563077       23.5758992609        9.2412105017
  H        14.8721206948        8.5885476296       12.6035522200
  H        50.2872960493       22.7028618777        4.0651641080
  H        49.2693351266       24.5756738246        5.3653124426
  H        45.6103983108       24.1087852390        3.1516194925
  H        46.6525844729       22.2534411624        1.8372795213
  H        47.6077492170       23.5518095090        6.8020018665
  H        40.6426494102       17.1016066435        3.4101990402
  H        48.6868511483       14.0952406269       15.7948332260
  H        10.6809348463       12.4655124962        4.0970569798
  H        11.6893083496       10.5236209445        5.3007737465
  H        15.3946694238       11.1608991624        3.2126685001
  H        14.3660736044       13.0893122947        1.9974151212
  H        13.3754979355       11.6219337884        6.7582184096
  H        47.9302564892       14.2181393349        1.7161830637
  H        47.7798134232       14.3732856279       14.4898553991
  H        49.0837254088       18.5521399361        2.8723171801
  H        10.4157958867       14.1343498154        0.0038355407
  H        24.4880375656        3.0264414892       11.9149386070
  H        25.6354957124        4.8825348824       10.6916209526
  H        23.2622627408        7.7547363687       12.8403607715
  H        22.1329736569        5.8888829135       14.0654692730
  H        23.8233389844        5.7900199049        9.2650006519
  H        36.3793581667       32.1805920549       11.9562342868
  H        35.2603133604       30.3529116372       10.6765005284
  H        37.5282017040       27.4355081222       12.8785888749
  H        38.6272803321       29.2760479594       14.1667434709
  H        37.0366829922       29.4385020679        9.2625390395
  H        25.7645666748        8.6044325121       12.6457831923
  H        36.4542542156       32.2364020667        4.1168150038
  H        35.3440028069       30.4153790661        5.4092904183
  H        37.5304590051       27.4845846466        3.1422698343
  H        38.6155420186       29.3174507934        1.8376211454
  H        37.0527283010       29.4584476595        6.8242018389
  H        46.1097525931       26.5875928127        3.3907428207
  H        44.6684798355       35.1161882340       15.8088038282
  H        24.4373248085        3.0359985652        4.0900609719
  H        25.5715837669        4.8726961752        5.3423276697
  H        23.1727833087        7.7662598901        3.2517950501
  H        22.0502715032        5.9175133826        1.9993295313
  H        23.7987878700        5.7889862924        6.8265542135
  H        44.9545376403       34.3909243040        1.7004885378
  H        44.9025712521       34.2072193346       14.4852562161
  H        40.6664565657       33.2093199185        2.8582614737
  H        23.1507493634        1.9576836018        0.0103320256
  H        25.8286362181       19.6501270042       11.8955772061
  H        23.6558771295       19.6998678857       10.6676502954
  H        22.3454655007       16.2414367228       12.8625857834
  H        24.5205675158       16.2068011055       14.0881920501
  H        23.7270212811       17.6759109690        9.2435919593
  H        35.1369557026       15.4911581235       11.9256473724
  H        37.2652932726       15.4534961334       10.6329896576
  H        38.6827320305       18.8354310064       12.8824362379
  H        36.5484966921       18.8518284955       14.1858755727
  H        37.2216899832       17.4291592255        9.2234718376
  H        20.3584863783       17.9894224335       12.6667272107
  H        35.1556166292       15.4689006088        4.1816573018
  H        37.3103992639       15.4099544735        5.4085524621
  H        38.7151722018       18.7812008989        3.1322940163
  H        36.5653800075       18.7988171125        1.8557877091
  H        37.2357753273       17.4090317101        6.7819597974
  H        35.1485859118       26.6763617690        3.3951971790
  H        28.5023288320       21.0694103296       15.9668580258
  H        25.7913116851       19.5955973850        4.2463909515
  H        23.6249456312       19.6608209369        5.4429488800
  H        22.2674119265       16.2521357872        3.1876313120
  H        24.4509814549       16.2069585168        1.9715846665
  H        23.7091789896       17.6712829632        6.8091420589
  H        29.0130118594       21.7119510388        1.7572838812
  H        29.1700819021       21.7349638875       14.6288750806
  H        32.1211394703       18.5649974570        2.9799416948
  H        27.3786448642       19.0319716225        0.0911804719
  H        14.8445812691       19.6449825037        4.1524907688
  H        17.0059179574       19.6956462112        5.3959420268
  H        18.3135782107       16.2041116908        3.2522305741
  H        16.1474542936       16.1680489520        2.0091575999
  H        16.9263086059       17.6906638285        6.8537598209
  H        46.0881514541       15.4528177523        4.0808959893
  H        43.9591344340       15.4036755705        5.3833337958
  H        42.5508810855       18.8252448416        3.1893804729
  H        44.6805193546       18.8498035073        1.8776031758
  H        44.0183536949       17.3640779088        6.8252352534
  H        20.2955637593       17.9525065987        3.4298008182
  H        46.0323442259       15.4027954203       12.0099861487
  H        43.9034295626       15.3590444693       10.7121596598
  H        42.5242238655       18.8141522994       12.8708414556
  H        44.6596369675       18.8445976121       14.1688531263
  H        44.0048089539       17.3513479006        9.2649428559
  H        46.1999251366       26.6828172974       12.6182929089
  H        52.7413478061       21.0627281038        0.1998321027
  H        14.8760077407       19.6706339612       11.8861572528
  H        17.0765444611       19.7454434834       10.7064420779
  H        18.3415791214       16.2400569656       12.8526830891
  H        16.1425947568       16.1885136732       14.0413628273
  H        16.9460461978       17.7034659274        9.2912307582
  H        52.3231985975       21.6734271100       14.2888199684
  H        52.0136686387       21.7023564604        1.5008215699
  H        49.0679076594       18.6075321304       13.1984603467
  H        13.2479387015       19.0160749531       15.9723956693
  H        29.9518869898       12.4549534719        4.2394570366
  H        28.8892062301       10.5230364015        5.4081699675
  H        25.2508080754       11.1951122920        3.2146233776
  H        26.3316520770       13.1176284298        2.0357517048
  H        27.1740205379       11.6690937279        6.7926255456
  H        30.9948666911       22.7744239411        4.0210952290
  H        32.0078316560       24.6518110075        5.3158341056
  H        35.6957469717       24.1289231304        3.1643131737
  H        34.6631055327       22.2566060087        1.8656799807
  H        33.6767356798       23.5729114192        6.7572692099
  H        25.7109316962        8.5890459944        3.4099219249
  H        30.9386350838       22.7220914339       11.9391766681
  H        31.9691820179       24.5762723682       10.6293250689
  H        35.6212177426       24.1052292352       12.8528918400
  H        34.5740110865       22.2516267486       14.1638465165
  H        33.6567345366       23.5570752985        9.1973663172
  H        40.5894951662       17.1192356483       12.6402229927
  H        32.5276749235       14.1539109393        0.2664893083
  H        29.9034085461       12.5533125934       11.8830760997
  H        28.8800792271       10.6522218901       10.6325500539
  H        25.2403382255       11.1446430939       12.8722182419
  H        26.2828897409       13.0350027618       14.1310595160
  H        27.1738010229       11.6835074224        9.2321032902
  H        33.3012363813       14.1989234266       14.4330792950
  H        33.4017147396       14.3484746585        1.6485784471
  H        32.0830500183       18.5234308705       13.1607475889
  H        30.2290377321       14.1911818855        0.0802676329
  H        16.1186722477        2.9634745260        4.1351916303
  H        14.9535578061        4.8206140474        5.3277315301
  H        17.3661226696        7.6860735263        3.2149134097
  H        18.5148893609        5.8185951348        2.0152230188
  H        16.7536199476        5.7395654370        6.7768126402
  H        44.8277910424       32.1403215214        3.9826387683
  H        45.9370936704       30.3415205961        5.3119705523
  H        43.6836941716       27.3781189380        3.1567413140
  H        42.6008694484       29.1899076669        1.8141217319
  H        44.2306044467       29.4368777371        6.7740823462
  H        14.8517621502        8.5467434444        3.3684857897
  H        44.8993179348       32.2341736877       11.9260434090
  H        46.0241844471       30.4132581658       10.6465239263
  H        43.7653193777       27.4840619738       12.8416748764
  H        42.6474858251       29.3177001831       14.1208377546
  H        44.2687316521       29.4706489259        9.2130922288
  H        35.0878834039       26.6105673171       12.6244318078
  H        36.6051526059       35.1341056252        0.1858630661
  H        16.1439113918        3.0129940327       11.8986582239
  H        14.9742011798        4.8563735319       10.6832210844
  H        17.3954804451        7.7473211774       12.7507164500
  H        18.5427650676        5.8934923981       13.9781013655
  H        16.7645607582        5.7554317878        9.2142606180
  H        36.2780477341       34.4830031119       14.2676708873
  H        36.3806417388       34.2093197304        1.5048479557
  H        40.5812079644       33.2030914582       13.1481320640
  H        17.4711901596        1.9480140838       15.9690280465
  H        28.8151279482       19.0036682707        4.4192462517
  H        29.8556684076       19.7304096265       11.5732137010
  H        32.1595943859       16.1239859919       11.6788960268
  H        30.9108550898       15.4580567888        4.4372023882
  H        28.5802580446       17.6496127109        7.1745568080
  H        29.2088192514       15.5250237120        6.6615973718
  H        31.8779405197       19.8505095004        9.6697291284
  H        32.7535917343       17.5564738275        9.2725411486
  H        29.1790734851       17.4565741702        9.6870299292
  H        18.8534191823        0.8690593590        4.3402187995
  H        40.5277712194       35.2288051200       11.9468971330
  H        42.3249336823       34.4198187797       11.5848822026
  H        22.0878050297        0.6917373948        4.3570122137
  H        11.5969528256       18.7127924280        4.3875605170
  H        52.2651114927       18.4313466950       11.6724190756
  H        49.2555661383       16.4762453898       11.5790673294
  H        10.1504612671       15.7983354383        4.2978580189
  H        50.8503373360       17.6924562554       11.9490648006
  H        10.0462567452       17.3946425446        4.0569721697
  H        20.2149683093        0.0023147787        4.0470460564
  H        39.1832387138       36.1242542031       11.6815075675
 Ni        31.0827796783       17.9323856582       10.9107546888
 Ni        31.0298210717       16.2548960100        8.2474923817
 Ni        30.1388022050       19.0677545063        7.9119160287
 Ni        30.0117503783       17.3255746430        5.3251878578
  O        10.6498709961       14.3651731123       13.4806955761
  O        12.6132340747       14.6574770962       14.5787832373
  O        49.1479143732       16.8458216492       15.9844544585
  O        50.3502816510       20.9357734341       13.6428764658
  O        48.3486137097       20.5933124921       14.6607884836
  O        11.0516034737       17.0536287676       14.4956786737
  O        50.3210442423       20.8818396525        2.4118931967
  O        48.3467296168       20.5869800781        1.3320095852
  O        49.5440858587       18.2483187049        2.0733568487