     586
 i =      185, E =     -4847.8025215616
  C        11.8587457034       14.0535027465       13.7364683760
  C        12.4561954230       12.8905656663       13.0182026520
  C        11.7044513121       12.1715660365       12.0766269901
  C        12.2808114872       11.1093504082       11.3842820409
  C        13.6214145590       10.7396029038       11.6119400747
  C        14.3546107017       11.4432250657       12.5853546245
  C        13.7817560813       12.5082173778       13.2768567261
  C        14.2609575548        9.6489459812       10.8385404438
  C        14.2562782288        9.6568923285        9.4168424459
  C        13.7430337458       10.7589773479        8.6629350308
  C        49.1269284936       21.2331671997       13.8744442742
  C        48.5502750879       22.4011630944       13.1474397201
  C        49.3002912495       23.0684666442       12.1664194117
  C        48.7333559903       24.1076310342       11.4332509599
  C        47.4028362546       24.5093264315       11.6619229757
  C        46.6719382584       23.8605034977       12.6755187384
  C        47.2343757442       22.8155827569       13.4048421943
  C        46.7725203030       25.5869823833       10.8646573632
  C        46.7614854532       25.5573409960        9.4428982670
  C        47.2614927957       24.4422924902        8.6993854460
  C        14.8602973893        8.5706030013        8.7035721776
  C        14.8917432931        8.5970028066       11.5151905351
  C        49.1133099515       21.2035041680        2.1504061722
  C        48.5280124119       22.3649295824        2.8774937843
  C        49.2672129602       23.0255555925        3.8704916912
  C        48.6909006331       24.0601160956        4.6019603526
  C        47.3605175083       24.4569705963        4.3636933588
  C        46.6401749255       23.8122035294        3.3400217949
  C        47.2136954349       22.7762945672        2.6082274673
  C        46.7220297824       25.5318910144        5.1547483271
  C        46.7337023257       25.5281804065        6.5764524435
  C        47.2492242425       24.4290047585        7.3328329832
  C        40.6328250366       17.1200838033        7.3210439591
  C        40.6532273174       17.1556481876        4.5114768211
  C        11.8830623259       14.0864916915        2.2905855713
  C        12.4723628717       12.9107186484        2.9947894827
  C        11.7148174497       12.1774619692        3.9208408384
  C        12.2814078155       11.0950246740        4.5892812545
  C        13.6202685555       10.7213693420        4.3575503559
  C        14.3582570610       11.4369658430        3.3967705603
  C        13.7928342944       12.5181169953        2.7240502659
  C        14.2538788330        9.6246285710        5.1279720918
  C        14.2525368915        9.6445956473        6.5498102396
  C        13.7425290384       10.7534774753        7.2968901509
  C        22.5130971949        3.2445808540       13.7481106543
  C        23.2304397760        4.3491049894       13.0492479059
  C        24.2276607273        4.0671037864       12.1037654952
  C        24.8576472836        5.1051414892       11.4219496200
  C        24.5064255377        6.4478391273       11.6653665421
  C        23.5375861218        6.7214110588       12.6481030168
  C        22.9029360764        5.6851150357       13.3283326636
  C        25.1137577108        7.5531912486       10.8885284182
  C        25.0818389831        7.5468480509        9.4669454058
  C        24.3770766649        6.5483598461        8.7221579130
  C        38.3038506280       31.9289060099       13.8429984829
  C        37.5778665220       30.8377901851       13.1317885409
  C        36.6215226286       31.1385380462       12.1499822269
  C        36.0087046448       30.1160207377       11.4308239959
  C        36.3370885574       28.7676182424       11.6724144630
  C        37.2638533983       28.4743980444       12.6904789795
  C        37.8810863417       29.4955634398       13.4080327777
  C        35.7381218653       27.6735155621       10.8755756350
  C        35.7714939453       27.6863683707        9.4542976203
  C        36.4780644098       28.6879691679        8.7166822269
  C        25.7034441444        8.6166141125        8.7454790408
  C        25.7153722201        8.6267073276       11.5575403159
  C        38.3287788125       31.9618785331        2.1608571167
  C        37.6080500314       30.8871025544        2.9013828116
  C        36.6818717381       31.1928438712        3.9101876922
  C        36.0745568465       30.1720374955        4.6389019377
  C        36.3792053673       28.8202848226        4.3820097026
  C        37.2822085533       28.5245736139        3.3425862585
  C        37.8917779271       29.5418042452        2.6153323532
  C        35.7751206293       27.7189297597        5.1659586736
  C        35.7903598470       27.7096011068        6.5878247692
  C        36.4867747391       28.6993438550        7.3501823602
  C        46.1356329375       26.6207729094        7.2866052118
  C        46.0880680207       26.5802587929        4.4787076720
  C        22.4606309049        3.2555005169        2.2627350440
  C        23.1545753893        4.3637862428        2.9860427602
  C        24.1569483124        4.0769463550        3.9262784104
  C        24.7851346747        5.1065527737        4.6227263015
  C        24.4309336289        6.4524142140        4.4011806487
  C        23.4515041664        6.7325832356        3.4295756553
  C        22.8186389145        5.7031946024        2.7337153850
  C        25.0624330308        7.5502361831        5.1749424062
  C        25.0561277097        7.5446513284        6.5977614955
  C        24.3632073236        6.5482729423        7.3554567856
  C        26.6240367590       17.8605828274       13.7779039431
  C        25.3162554097       17.9085740757       13.0529796102
  C        25.0627313021       18.9013122730       12.0927141398
  C        23.8491128368       18.9239917996       11.4072751069
  C        22.8534084714       17.9571352485       11.6583972676
  C        23.1045849778       16.9877145391       12.6475729770
  C        24.3193709019       16.9599377467       13.3314713339
  C        21.5797763710       17.9428467204       10.8944439858
  C        21.5793233163       17.9173778603        9.4720168719
  C        22.7842974284       17.7891332105        8.7111088755
  C        34.4223092817       17.2244549239       13.8787135284
  C        35.7183073362       17.1640055617       13.1430954076
  C        35.9261456942       16.1885196038       12.1553926322
  C        37.1122899757       16.1664424116       11.4277751516
  C        38.1205277613       17.1201283070       11.6664486078
  C        37.9160391847       18.0752769137       12.6803576661
  C        36.7286221675       18.1008874618       13.4077248781
  C        39.3761785582       17.1251694554       10.8831394894
  C        39.3725159681       17.1328067206        9.4614314499
  C        38.1647151043       17.2377746275        8.7013765538
  C        20.3327883774       17.9344216638        8.7633409484
  C        20.3546360867       17.9467003773       11.5766778395
  C        34.4712132961       17.2437300875        2.1836466435
  C        35.7778974039       17.1584183665        2.9003374138
  C        36.0210340417       16.1293612859        3.8237402339
  C        37.2044628092       16.1121241439        4.5583413333
  C        38.1759142815       17.1160647723        4.3789258636
  C        37.9435908322       18.1155139935        3.4167769192
  C        36.7556452381       18.1420043039        2.6908449519
  C        39.4229323117       17.1323775823        5.1756861375
  C        39.3969935031       17.1336546014        6.5958021314
  C        38.1764633762       17.2333661792        7.3348770131
  C        35.1613485894       26.6298135959        7.2921530954
  C        35.1825417719       26.6495877285        4.4830586677
  C        26.5709631553       17.8222308058        2.3335688610
  C        25.2574337545       17.8769217158        3.0384932033
  C        25.0001096156       18.8763203622        3.9893273979
  C        23.7820692159       18.9044007791        4.6625638365
  C        22.7927938407       17.9334536209        4.4086476065
  C        23.0445290713       16.9597563241        3.4248493030
  C        24.2629496998       16.9291342934        2.7501116502
  C        21.5296207344       17.9139698350        5.1817958970
  C        21.5538870533       17.9013037818        6.6032489838
  C        22.7724247786       17.7816149103        7.3448836230
  C        14.0470527267       17.8290405114        2.2941498281
  C        15.3515243696       17.8868568980        3.0198553559
  C        15.6065725937       18.8892451595        3.9688494914
  C        16.8153385661       18.9111599881        4.6622182039
  C        17.8037729913       17.9336968760        4.4286519006
  C        17.5534929993       16.9555116551        3.4476413252
  C        16.3440313542       16.9288734345        2.7560220412
  C        19.0731719935       17.9180102785        5.1977251040
  C        19.0723713745       17.9127239525        6.6203360360
  C        17.8657755028       17.8112761447        7.3818418760
  C        46.8070470343       17.2195524056        2.1640062785
  C        45.5188239381       17.1608405383        2.9112599190
  C        45.3149763034       16.1874247367        3.9011946517
  C        44.1342562947       16.1727874831        4.6383358838
  C        43.1290444196       17.1315443395        4.4060974768
  C        43.3304798838       18.0850730188        3.3902621393
  C        44.5120662603       18.1038066985        2.6544793408
  C        41.8759832608       17.1424465080        5.1927185278
  C        41.8801442066       17.1414284260        6.6142476815
  C        43.0876537482       17.2441483262        7.3744762919
  C        20.3193792276       17.9248873556        7.3284236080
  C        20.2972714319       17.9026392807        4.5154259256
  C        46.7850131848       17.2318556599       13.8836808060
  C        45.4815321767       17.1280990487       13.1678140847
  C        45.2626125846       16.1328612420       12.2033812329
  C        44.0745057336       16.1091004370       11.4771106371
  C        43.0758262826       17.0772194755       11.6986520288
  C        43.2848038759       18.0418349942       12.7018151601
  C        44.4742673740       18.0722393489       13.4228022907
  C        41.8301297622       17.1016282781       10.9008837563
  C        41.8565930096       17.1197859045        9.4801158001
  C        43.0764152576       17.2308741112        8.7409309387
  C        46.1533896128       26.6371768394        8.7211544018
  C        46.1625511003       26.6560916237       11.5307983311
  C        14.0461211492       17.8321847713       13.7037135501
  C        15.3676910675       17.9077466007       13.0137019363
  C        15.6403109663       18.9228214441       12.0844227159
  C        16.8695903383       18.9614170738       11.4299790075
  C        17.8543485970       17.9841889848       11.6789895911
  C        17.5886619807       16.9982389628       12.6466748488
  C        16.3613014624       16.9590410900       13.3044943955
  C        19.1219704968       17.9602768493       10.9099470537
  C        19.0977569421       17.9332996375        9.4883829839
  C        17.8781417178       17.8205972267        8.7478767322
  C        28.8049715755       14.0895939871        2.3951602258
  C        28.1954396264       12.9155306294        3.0818562103
  C        28.9175269084       12.1800159714        4.0336024584
  C        28.3184693348       11.1042725622        4.6840876677
  C        26.9845338484       10.7415917621        4.4080764963
  C        26.2851716003       11.4575679256        3.4197600228
  C        26.8814736452       12.5329651242        2.7668183298
  C        26.3152556428        9.6625099901        5.1697204269
  C        26.3033123790        9.6896611563        6.5907033813
  C        26.8068676656       10.8033067864        7.3350833224
  C        32.1791574080       21.2368104789        2.1484555221
  C        32.7736148106       22.4040224110        2.8643762215
  C        32.0297655928       23.0802672123        3.8433545426
  C        32.6035295343       24.1171999907        4.5722535829
  C        33.9373390126       24.5060323745        4.3424853708
  C        34.6635124928       23.8495325259        3.3309015941
  C        34.0919984427       22.8070259265        2.6041196012
  C        34.5700317186       25.5787716106        5.1430705577
  C        34.5665832511       25.5473346647        6.5646451907
  C        34.0580472268       24.4320339470        7.3029035552
  C        25.6947420848        8.6121227603        7.3108937804
  C        25.6779081164        8.6114596072        4.4975655162
  C        32.1052614691       21.2278575055       13.8780605468
  C        32.6998254067       22.3748120445       13.1310047719
  C        31.9716032928       23.0279264045       12.1246836190
  C        32.5558008558       24.0553224796       11.3876704089
  C        33.8819259228       24.4590825423       11.6378693078
  C        34.5933588440       23.8182768593       12.6704766944
  C        34.0140003326       22.7856573797       13.4031844173
  C        34.5248809216       25.5383900304       10.8533936206
  C        34.5431768327       25.5271832148        9.4314416521
  C        34.0463772483       24.4229588338        8.6695938802
  C        40.6201948645       17.1142596583        8.7550282940
  C        40.5985595882       17.1243904806       11.5644736802
  C        28.7448588202       14.0686497835       13.8147541037
  C        28.1384444696       12.9226207440       13.0727572968
  C        28.8757398379       12.2334349954       12.0965581654
  C        28.2963831148       11.1770398995       11.3962362904
  C        26.9664878276       10.7822857397       11.6487974216
  C        26.2480685602       11.4601916612       12.6513215702
  C        26.8241162526       12.5179338331       13.3520690509
  C        26.3252166092        9.6897766036       10.8783806293
  C        26.3097829767        9.7035645717        9.4568415350
  C        26.8074990638       10.8108132327        8.7006483612
  C        18.1354619736        3.1810091166        2.3222444004
  C        17.4061705710        4.2782641698        3.0208831892
  C        16.3903298558        3.9999279303        3.9482714895
  C        15.7426117050        5.0399123424        4.6117819929
  C        16.0946692413        6.3836138336        4.3722266428
  C        17.0841557922        6.6531323279        3.4085670071
  C        17.7332270649        5.6157805367        2.7435075962
  C        15.4703392724        7.4913181791        5.1352755501
  C        15.4855870352        7.4906269708        6.5569897189
  C        16.1870779934        6.4969685382        7.3101617721
  C        42.9459835433       31.8595416271        2.0779529291
  C        43.6463824532       30.7718879626        2.8219479416
  C        44.5920184072       31.0932263998        3.8079067472
  C        45.1977240272       30.0876899238        4.5555980677
  C        44.8711985293       28.7346427257        4.3408306043
  C        43.9452821458       28.4202882585        3.3277069964
  C        43.3364574358       29.4254121785        2.5796527862
  C        45.4887870059       27.6553255717        5.1440014925
  C        45.4929104892       27.6808967495        6.5656943241
  C        44.8058636708       28.6889639924        7.3123252962
  C        14.8565710226        8.5630951518        7.2693491027
  C        14.8751094351        8.5631078040        4.4566736381
  C        42.9464780242       31.9615565604       13.8038644398
  C        43.6917159339       30.8854228114       13.0903509674
  C        44.6565025128       31.1913209248       12.1182458201
  C        45.2780481264       30.1717424273       11.4005154601
  C        44.9541022914       28.8214454750       11.6379890386
  C        44.0204388812       28.5237694338       12.6485944681
  C        43.3921629025       29.5405305178       13.3607672585
  C        45.5631560205       27.7240330702       10.8527503427
  C        45.5334203926       27.7173281741        9.4314543280
  C        44.8271238458       28.7075835997        8.6785098276
  C        35.1506721371       26.6186986521        8.7268873711
  C        35.1331693555       26.5984885361       11.5364319454
  C        18.1485961769        3.2469687421       13.7014888892
  C        17.4299207343        4.3438030591       12.9922839667
  C        16.4146351199        4.0525473763       12.0687929759
  C        15.7663172753        5.0831707018       11.3933934627
  C        16.1210802023        6.4283891036       11.6160379025
  C        17.1125413804        6.7117765131       12.5732073694
  C        17.7602181536        5.6828646660       13.2529704257
  C        15.4905900453        7.5240915446       10.8435885271
  C        15.4965155699        7.5074976572        9.4224552611
  C        16.1932602051        6.5057759790        8.6757668087
  H        10.6722731899       12.4655829411       11.8997053753
  H        11.6944587825       10.5507713297       10.6578680190
  H        15.3916504320       11.1686339899       12.7670418805
  H        14.3512688767       13.0714814277       14.0122222066
  H        13.3758646521       11.6310331404        9.1962463190
  H        50.3230069503       22.7484687360       11.9816435530
  H        49.3198645728       24.6229387392       10.6757188345
  H        45.6425071870       24.1614072621       12.8588191377
  H        46.6634267296       22.2904208794       14.1670344522
  H        47.6301922152       23.5759747145        9.2410517239
  H        14.8720265959        8.5882185868       12.6034962905
  H        50.2872593401       22.7027186119        4.0654224854
  H        49.2693193851       24.5755528063        5.3654569152
  H        45.6108485239       24.1096314139        3.1508292017
  H        46.6529374106       22.2542832518        1.8365174545
  H        47.6081622944       23.5519548401        6.8019306852
  H        40.6603133049       17.1292914605        3.4235136457
  H        48.6870284078       14.0949016442       15.7949399515
  H        10.6812878330       12.4663945073        4.0981297896
  H        11.6895630289       10.5245242601        5.3018506824
  H        15.3937112331       11.1591196500        3.2108983795
  H        14.3652188703       13.0875332697        1.9955901759
  H        13.3755967965       11.6220419504        6.7582480787
  H        47.9304585203       14.2173007404        1.7162602210
  H        47.7798907466       14.3726653331       14.4899771535
  H        49.0845060897       18.5528125771        2.8726109419
  H        10.4160812497       14.1342575969        0.0037615904
  H        24.4867375973        3.0279818564       11.9132755157
  H        25.6308249392        4.8856159968       10.6888318983
  H        23.2587808464        7.7549607335       12.8427006083
  H        22.1327472083        5.8875068033       14.0686299597
  H        23.8167728854        5.7916913917        9.2635699658
  H        36.3832913282       32.1810633336       11.9525856546
  H        35.2666369395       30.3526958339       10.6714830411
  H        37.5250133200       27.4360406045       12.8839949683
  H        38.6224256474       29.2771462292       14.1729891934
  H        37.0441095008       29.4372227148        9.2624869040
  H        25.7544491665        8.6087617868       12.6452164857
  H        36.4590787750       32.2364166636        4.1208255002
  H        35.3511726690       30.4144319480        5.4142638384
  H        37.5288955878       27.4849901234        3.1373048013
  H        38.6119812801       29.3186928295        1.8319871898
  H        37.0605357240       29.4568977551        6.8241245983
  H        46.1095882209       26.5877689703        3.3906746204
  H        44.6683815848       35.1161771913       15.8088203525
  H        24.4346483837        3.0385809739        4.0926020652
  H        25.5663769480        4.8773649376        5.3443276162
  H        23.1667375755        7.7672696523        3.2497809621
  H        22.0466928106        5.9163847673        1.9978900705
  H        23.7915445403        5.7921332140        6.8251527900
  H        44.9544246509       34.3909089143        1.7005126097
  H        44.9024086259       34.2071125941       14.4853751375
  H        40.6659052734       33.2091088501        2.8582057863
  H        23.1506057024        1.9576742592        0.0104613757
  H        25.8296752263       19.6492935989       11.9020231237
  H        23.6543188308       19.7024690187       10.6722829794
  H        22.3481449730       16.2324456080       12.8511403893
  H        24.5233813517       16.1978331227       14.0800762785
  H        23.7234405178       17.6638967049        9.2422296439
  H        35.1445243816       15.4569668305       11.9650640262
  H        37.2726527473       15.4011038839       10.6715464345
  H        38.6875080215       18.8192005422       12.8682134061
  H        36.5536414058       18.8512794680       14.1752748236
  H        37.2231968822       17.3487159710        9.2314832315
  H        20.3613887200       17.9901284051       12.6644184747
  H        35.2682698899       15.3545094794        3.9580939717
  H        37.3927764062       15.3135792889        5.2732407035
  H        38.6903787964       18.8937684545        3.2733977360
  H        36.5518589071       18.9306542263        1.9703433200
  H        37.2446466830       17.3394676766        6.7867618437
  H        35.1502953888       26.6778938301        3.3955453439
  H        28.5061669793       21.0648610357       15.9580427974
  H        25.7642651067       19.6244833791        4.1872230300
  H        23.5847908926       19.6837700243        5.3955126922
  H        22.2888140760       16.2033621312        3.2231478032
  H        24.4739245879       16.1649866031        2.0058238762
  H        23.7030036046       17.6531032698        6.7998765829
  H        29.0113804881       21.7134066365        1.7582707636
  H        29.1726019953       21.7325199261       14.6251180446
  H        32.1315613918       18.5846585373        2.9758194598
  H        27.3778886552       19.0212611650        0.0881107842
  H        14.8470399225       19.6470091853        4.1478404551
  H        17.0089669458       19.6949183253        5.3914556744
  H        18.3060204920       16.1928042010        3.2580294668
  H        16.1396644014       16.1602346063        2.0144440106
  H        16.9233986897       17.6941145970        6.8546608649
  H        46.0985347569       15.4562201642        4.0853854690
  H        43.9750007588       15.4104603719        5.3977631219
  H        42.5616889076       18.8330848373        3.2080228260
  H        44.6856535716       18.8537423068        1.8863660119
  H        44.0290940184       17.3653005270        6.8462846603
  H        20.2909893882       17.9353572937        3.4273749892
  H        46.0391773566       15.3927356546       12.0241856715
  H        43.9074982737       15.3371964268       10.7289889710
  H        42.5186503954       18.7936245683       12.8795487760
  H        44.6574648697       18.8362904975       14.1742656081
  H        44.0093891180       17.3402498930        9.2862750096
  H        46.1995004954       26.6827050694       12.6182388621
  H        52.7412717599       21.0627867773        0.1998439718
  H        14.8789683457       19.6754405696       11.8915370992
  H        17.0796655277       19.7516010713       10.7123349230
  H        18.3401680072       16.2373010767       12.8469969186
  H        16.1411753071       16.1847453495       14.0354027293
  H        16.9450350806       17.7105350203        9.2921963353
  H        52.3232239450       21.6734896759       14.2888895492
  H        52.0138824826       21.7025201843        1.5009748804
  H        49.0677747439       18.6077664408       13.1987732997
  H        13.2477057777       19.0165065977       15.9722635808
  H        29.9445805727       12.4642290583        4.2522087060
  H        28.8801727285       10.5326959782        5.4197936397
  H        25.2546107168       11.1869760089        3.1992787100
  H        26.3394479511       13.1075311279        2.0197077281
  H        27.1682749041       11.6718563801        6.7928991375
  H        31.0053592174       22.7667643980        4.0275628999
  H        32.0219587004       24.6406895902        5.3279043000
  H        35.6954893946       24.1416592247        3.1474982365
  H        34.6579204993       22.2744148701        1.8432393711
  H        33.6979633575       23.5643776347        6.7571831112
  H        25.7074133002        8.5909949728        3.4095758984
  H        30.9507895402       22.7115812561       11.9238247048
  H        31.9833449520       24.5626966062       10.6142509022
  H        35.6201374867       24.1185412737       12.8690885027
  H        34.5682919946       22.2688464976       14.1831869300
  H        33.6775356642       23.5483191447        9.1978640210
  H        40.5899340426       17.0873741349       12.6521501484
  H        32.5173611448       14.1602652971        0.2569238962
  H        29.9055024570       12.5327380693       11.9091742020
  H        28.8764351694       10.6371082740       10.6506956254
  H        25.2193126686       11.1684063677       12.8526264930
  H        26.2662407661       13.0567404185       14.1143571004
  H        27.1676745367       11.6855469713        9.2338031054
  H        33.2966995958       14.1871038732       14.4302927846
  H        33.4063835244       14.3720221256        1.6241960141
  H        32.0838157085       18.5458299517       13.1656808154
  H        30.2268392824       14.1955676574        0.0816338491
  H        16.1181226685        2.9634409063        4.1345579645
  H        14.9530243910        4.8205375684        5.3272946538
  H        17.3666702476        7.6860006211        3.2155367845
  H        18.5153254515        5.8184048445        2.0157170158
  H        16.7535783564        5.7395915861        6.7766547191
  H        44.8284228082       32.1402981809        3.9819890782
  H        45.9377142763       30.3414662515        5.3114149387
  H        43.6825625480       27.3782168016        3.1576512225
  H        42.5997815206       29.1900991970        1.8150403283
  H        44.2306393865       29.4368228238        6.7740093732
  H        14.8513479897        8.5463393128        3.3684525956
  H        44.9002271442       32.2339857236       11.9269400865
  H        46.0251302117       30.4129848149       10.6474559342
  H        43.7634007956       27.4840406299       12.8400522231
  H        42.6455572607       29.3177574849       14.1191126023
  H        44.2687380888       29.4705476417        9.2131136744
  H        35.0879088424       26.6130052678       12.6237636060
  H        36.6050561528       35.1339858815        0.1858290375
  H        16.1434453982        3.0129822498       11.8991649183
  H        14.9738929476        4.8563289850       10.6834164289
  H        17.3960995731        7.7472418686       12.7500312964
  H        18.5431702986        5.8932953070       13.9776579908
  H        16.7646056906        5.7554784286        9.2142173664
  H        36.2780924960       34.4829247728       14.2677845214
  H        36.3803884344       34.2094569560        1.5050543599
  H        40.5805411249       33.2027595424       13.1482337266
  H        17.4708374720        1.9475687307       15.9689928581
  H        28.7961338259       19.0316955407        4.4251773004
  H        29.9133152334       19.8349261825       11.6326846615
  H        32.2276068424       16.1757391642       11.6797252248
  H        30.8920241516       15.4091060698        4.4021983213
  H        28.3431660727       17.5875781803        7.1920464699
  H        29.2133115886       15.1958181511        6.7969477335
  H        31.9481662672       19.9217158357        9.2374825278
  H        32.8567994999       17.4406553090        9.0317429943
  H        28.7199682881       17.3163582736        9.5101683875
  H        18.8533086670        0.8689253237        4.3403777056
  H        40.5278417822       35.2290569114       11.9469087833
  H        42.3245941172       34.4195682487       11.5849290152
  H        22.0877872587        0.6918605636        4.3568385333
  H        11.5967487378       18.7132449168        4.3878608019
  H        52.2648577577       18.4312424513       11.6719144545
  H        49.2553385184       16.4766122795       11.5791140301
  H        10.1503141515       15.7981365158        4.2979108494
  H        50.8501002630       17.6924214696       11.9491352326
  H        10.0462857544       17.3944595780        4.0570409126
  H        20.2147041483        0.0022377177        4.0470861331
  H        39.1835152643       36.1244093139       11.6813904150
 Ni        30.9016892063       17.8926668708       10.5821203139
 Ni        31.0701525189       16.1346086443        8.1618575367
 Ni        30.0540177702       19.0671918927        7.9119021130
 Ni        30.0990570981       17.3305363700        5.4920211944
  O        10.6499448561       14.3651455331       13.4807436331
  O        12.6131851764       14.6575602870       14.5788020625
  O        49.1480239951       16.8458955942       15.9845642331
  O        50.3503294029       20.9356810269       13.6428827260
  O        48.3486209826       20.5933297508       14.6607817503
  O        11.0517260255       17.0538010589       14.4956339975
  O        50.3210610672       20.8816054548        2.4119424155
  O        48.3467964662       20.5867719903        1.3322125528
  O        49.5438952961       18.2484528427        2.0732890703