     586
 i =      433, E =     -4847.8651150639
  C        11.8585196405       14.0535895961       13.7364702617
  C        12.4560596531       12.8905631279       13.0181972301
  C        11.7045152390       12.1718629359       12.0762606048
  C        12.2809062418       11.1096544982       11.3838978796
  C        13.6213614458       10.7396275591       11.6119132478
  C        14.3543459077       11.4429273417       12.5857159669
  C        13.7814381502       12.5078837330       13.2772375489
  C        14.2610010895        9.6489945676       10.8385478140
  C        14.2566813894        9.6570838017        9.4168479004
  C        13.7436247851       10.7592559164        8.6629394043
  C        49.1267067849       21.2332308494       13.8745327425
  C        48.5499938895       22.4010496314       13.1473980997
  C        49.3000976189       23.0685154788       12.1665342603
  C        48.7331488818       24.1076198848       11.4333167488
  C        47.4025096369       24.5090958157       11.6617476545
  C        46.6714480217       23.8600218925       12.6750595574
  C        47.2339125837       22.8151503836       13.4044461627
  C        46.7723388602       25.5868638051       10.8645017458
  C        46.7615172286       25.5573829560        9.4427373236
  C        47.2615217599       24.4423433674        8.6992106835
  C        14.8607066801        8.5707810647        8.7036023282
  C        14.8914679988        8.5968646265       11.5152121495
  C        49.1131025688       21.2035084540        2.1504349135
  C        48.5277144624       22.3647872069        2.8775415185
  C        49.2670969317       23.0260125288        3.8700222069
  C        48.6906586054       24.0605201528        4.6014438565
  C        47.3600021267       24.4567645744        4.3636081416
  C        46.6393860243       23.8113034455        3.3405838609
  C        47.2130485932       22.7754428471        2.6088240237
  C        46.7215481837       25.5317376833        5.1546280442
  C        46.7336101291       25.5282281407        6.5763200928
  C        47.2492019126       24.4290619863        7.3326616811
  C        40.6217086040       17.1499930864        7.3115416808
  C        40.6330758548       17.1413848810        4.5019279167
  C        11.8828658753       14.0865716351        2.2905366458
  C        12.4722668287       12.9106887587        2.9947368558
  C        11.7149352058       12.1776707437        3.9211269809
  C        12.2816100446       11.0952780979        4.5896065850
  C        13.6203385746       10.7213969017        4.3575407974
  C        14.3580662704       11.4366997756        3.3963477902
  C        13.7925667479       12.5178091630        2.7236228074
  C        14.2540986190        9.6247350091        5.1279711998
  C        14.2530268383        9.6448185432        6.5498151187
  C        13.7431668660       10.7537708228        7.2968945184
  C        22.5114415042        3.2432200111       13.7491011558
  C        23.2276091894        4.3480436797       13.0503057269
  C        24.2249144711        4.0659020099       12.1053641563
  C        24.8546265432        5.1043461069       11.4245256346
  C        24.5024100083        6.4463113742       11.6695026278
  C        23.5326179100        6.7201339238       12.6508204185
  C        22.8981952477        5.6832662097       13.3299086772
  C        25.1141057855        7.5502619049       10.8959248042
  C        25.0886571908        7.5444771018        9.4747432221
  C        24.3752913332        6.5527783992        8.7290784573
  C        38.2979791669       31.9241643691       13.8438832957
  C        37.5589009616       30.8340446551       13.1394364830
  C        36.5973714177       31.1389179411       12.1629021610
  C        35.9688931763       30.1204028599       11.4504212873
  C        36.2840892803       28.7677228226       11.6894658080
  C        37.2149925066       28.4705886181       12.7034640908
  C        37.8480278504       29.4880839926       13.4151803175
  C        35.6737056463       27.6790685713       10.8879954195
  C        35.7161951797       27.6944099314        9.4658596095
  C        36.4363138673       28.6921705958        8.7361704922
  C        25.7244319685        8.6072850124        8.7556104402
  C        25.7155540508        8.6215529827       11.5680103095
  C        38.3312418403       31.9621098230        2.1639253576
  C        37.6159446190       30.8898922411        2.9113187518
  C        36.6885127988       31.1992667838        3.9180080699
  C        36.0809090943       30.1812647898        4.6500209881
  C        36.3862068998       28.8286012133        4.3985169574
  C        37.2940055312       28.5293581344        3.3641144186
  C        37.9038150296       29.5437186467        2.6334920399
  C        35.7707384527       27.7299517912        5.1765026692
  C        35.7648089381       27.7213103653        6.5984003337
  C        36.4586828196       28.7055818086        7.3698350893
  C        46.1356526728       26.6208640251        7.2864846200
  C        46.0872589356       26.5799086343        4.4785895104
  C        22.4601739320        3.2568044822        2.2646344482
  C        23.1525496743        4.3665699695        2.9906608889
  C        24.1534396772        4.0810363788        3.9330031160
  C        24.7804260730        5.1110740830        4.6306346362
  C        24.4276556343        6.4575709915        4.4088140117
  C        23.4489516329        6.7364534258        3.4358771235
  C        22.8171133580        5.7064216555        2.7390517081
  C        25.0624514941        7.5544295441        5.1832228700
  C        25.0624515699        7.5459654781        6.6062497188
  C        24.3613962342        6.5543537407        7.3626477288
  C        26.6210719011       17.8581980942       13.7747213549
  C        25.3188658238       17.8941365483       13.0451530349
  C        25.0661911257       18.8731726262       12.0711674431
  C        23.8523965830       18.8883039348       11.3873896000
  C        22.8553448209       17.9273641459       11.6531030979
  C        23.1060687693       16.9698592367       12.6539597436
  C        24.3213140031       16.9493959167       13.3364016760
  C        21.5813670808       17.9102547265       10.8910626218
  C        21.5815684373       17.8821009706        9.4686301518
  C        22.7860015974       17.7418929520        8.7080681301
  C        34.4183261252       17.2265708173       13.8727172111
  C        35.7123852210       17.1754773763       13.1356735762
  C        35.9146986468       16.2261561247       12.1213861401
  C        37.1018686602       16.2153224779       11.3951727687
  C        38.1193256613       17.1528740898       11.6614091819
  C        37.9198581711       18.0805375445       12.7017617406
  C        36.7307199857       18.0966277489       13.4264702214
  C        39.3755373598       17.1658233019       10.8784219903
  C        39.3694840930       17.1887200561        9.4565774711
  C        38.1639336567       17.3331276366        8.7005719743
  C        20.3345121155       17.9088980016        8.7610718585
  C        20.3566077662       17.9208100540       11.5741571368
  C        34.4266809525       17.2161058475        2.2266620849
  C        35.7325826339       17.1319072887        2.9338962337
  C        35.9273038681       16.1999049729        3.9652319166
  C        37.1263045102       16.1892729340        4.6730605904
  C        38.1518753812       17.1084934145        4.3788410183
  C        37.9596305470       18.0114996884        3.3151587533
  C        36.7636328664       18.0272573096        2.6042105257
  C        39.4021883880       17.1429830141        5.1685607536
  C        39.3833683573       17.1792530279        6.5902938972
  C        38.1703082756       17.3274303594        7.3341532395
  C        35.1178629617       26.6463188711        7.2939008931
  C        35.1841229733       26.6631211905        4.4843455756
  C        26.5725069432       17.8254697156        2.3334942577
  C        25.2593254915       17.8685256274        3.0393692918
  C        24.9913895954       18.8714723586        3.9835598389
  C        23.7734354724       18.8906351308        4.6571175406
  C        22.7932095367       17.9090103919        4.4080801361
  C        23.0546622579       16.9326911004        3.4299529773
  C        24.2740393273       16.9097537561        2.7563277777
  C        21.5292162316       17.8871425732        5.1799432465
  C        21.5542801258       17.8704438267        6.6011194557
  C        22.7720428261       17.7378112385        7.3416488616
  C        14.0464110578       17.8283655723        2.2940974386
  C        15.3511580394       17.8837569851        3.0198643928
  C        15.6097181456       18.8862870810        3.9675916942
  C        16.8190425415       18.9050698487        4.6602386874
  C        17.8039615096       17.9240014598        4.4271916287
  C        17.5500476487       16.9455208248        3.4474934436
  C        16.3402990767       16.9222565006        2.7564927723
  C        19.0734381867       17.9034762606        5.1957211107
  C        19.0730688030       17.8977337496        6.6182970356
  C        17.8660468901       17.8036027403        7.3801035906
  C        46.8027364443       17.2173908209        2.1620241222
  C        45.5096400601       17.1528787980        2.9020245802
  C        45.3013374493       16.1761371238        3.8881848501
  C        44.1171193722       16.1578577225        4.6204762287
  C        43.1111492076       17.1162965389        4.3887993898
  C        43.3156662591       18.0706820243        3.3739453245
  C        44.5005719395       18.0930922585        2.6427748727
  C        41.8583503201       17.1337295505        5.1784948608
  C        41.8671525598       17.1472405395        6.6005749817
  C        43.0776008292       17.2395113628        7.3571979122
  C        20.3201013718       17.9012024061        7.3263240851
  C        20.2973686689       17.8825080449        4.5130091879
  C        46.7843715486       17.2334356088       13.8806455121
  C        45.4826057516       17.1342156548       13.1604822478
  C        45.2621091863       16.1417215938       12.1932138673
  C        44.0746590188       16.1218704176       11.4651441520
  C        43.0771774791       17.0916677071       11.6862512426
  C        43.2885840711       18.0542940093       12.6912282765
  C        44.4768169714       18.0804949458       13.4145119743
  C        41.8300208770       17.1217848000       10.8898054162
  C        41.8527549860       17.1394495763        9.4683231361
  C        43.0709838924       17.2330245498        8.7241842557
  C        46.1535085190       26.6372911905        8.7210244029
  C        46.1622082091       26.6558612074       11.5306762197
  C        14.0459322487       17.8308361619       13.7029356498
  C        15.3677892045       17.9023361144       13.0116418333
  C        15.6455861522       18.9180137876       12.0846106619
  C        16.8754611432       18.9523745527       11.4305713427
  C        17.8557172320       17.9699628593       11.6771800278
  C        17.5845845615       16.9828051670       12.6421184149
  C        16.3569526294       16.9481559034       13.2998342091
  C        19.1236382996       17.9407431857       10.9081143101
  C        19.0995967897       17.9154397799        9.4864883384
  C        17.8791087373       17.8117597382        8.7461271068
  C        28.8007909412       14.0912176896        2.4010094596
  C        28.1933221821       12.9209671769        3.0925446203
  C        28.9370550484       12.1481600221        3.9975120961
  C        28.3413836834       11.0718431364        4.6502303307
  C        26.9902918299       10.7435941435        4.4201519761
  C        26.2666193547       11.4974311424        3.4788101862
  C        26.8588830846       12.5744214564        2.8250130829
  C        26.3275715890        9.6597848116        5.1820309329
  C        26.3346399954        9.6773482600        6.6032055131
  C        26.8701226787       10.7749935525        7.3497892820
  C        32.1768593315       21.2479609282        2.1469994744
  C        32.7622858343       22.4290479460        2.8403892676
  C        31.9985455300       23.1445262266        3.7750381169
  C        32.5722566105       24.1810796620        4.5043029994
  C        33.9221645692       24.5314488817        4.3204282131
  C        34.6690165143       23.8419124213        3.3453562702
  C        34.0989845036       22.7989386470        2.6181849178
  C        34.5510761187       25.5986226145        5.1339748028
  C        34.5219392554       25.5704067611        6.5561237375
  C        33.9878434316       24.4616780060        7.2857370291
  C        25.7146771873        8.6048036379        7.3210749845
  C        25.6773032582        8.6178799141        4.5078837209
  C        32.0767903467       21.2002808862       13.8680255415
  C        32.6459161068       22.3553901430       13.1158655412
  C        31.9185116313       22.9823646241       12.0918221612
  C        32.4878246670       24.0234003298       11.3601826732
  C        33.7994973232       24.4654870147       11.6281086388
  C        34.5078683234       23.8478597360       12.6777505754
  C        33.9436972213       22.8058298689       13.4076890722
  C        34.4403589163       25.5512173022       10.8481945037
  C        34.4678401564       25.5446856466        9.4250395050
  C        33.9656100808       24.4493859193        8.6528450511
  C        40.6143853567       17.1503142691        8.7462334400
  C        40.5998262039       17.1503026892       11.5567939641
  C        28.7558267750       14.0503122497       13.8418363401
  C        28.1565838385       12.8891917415       13.1147021114
  C        28.9163201336       12.1543360586       12.1884499715
  C        28.3342603604       11.1072067130       11.4758926328
  C        26.9827115465       10.7624866658       11.6713181773
  C        26.2406258051       11.4804334382       12.6290311317
  C        26.8159870292       12.5322898900       13.3376200632
  C        26.3418449009        9.6756108797       10.8912468158
  C        26.3447423992        9.6856075027        9.4695947097
  C        26.8744279235       10.7799035616        8.7161035949
  C        18.1353549867        3.1807332851        2.3222547146
  C        17.4060672727        4.2781008857        3.0208551947
  C        16.3906318606        3.9997997798        3.9486853764
  C        15.7429630561        5.0398224465        4.6122039244
  C        16.0946622665        6.3835446112        4.3722490419
  C        17.0836552320        6.6529945406        3.4080577038
  C        17.7326744987        5.6156178298        2.7429896515
  C        15.4704962196        7.4913387741        5.1352956788
  C        15.4859404541        7.4907715278        6.5570099466
  C        16.1873812060        6.4970974735        7.3102107820
  C        42.9456819809       31.8593637413        2.0778644541
  C        43.6458971561       30.7717171826        2.8218777284
  C        44.5920118819       31.0929504572        3.8074346584
  C        45.1976295438       30.0873638743        4.5551030889
  C        44.8705286362       28.7343735374        4.3407623935
  C        43.9439943788       28.4201100076        3.3281827831
  C        43.3352742112       29.4252920625        2.5801116683
  C        45.4882478720       27.6551063277        5.1439171863
  C        45.4927919287       27.6809185820        6.5656024297
  C        44.8058386496       28.6890416055        7.3122437094
  C        14.8570489947        8.5633136325        7.2693699424
  C        14.8751292409        8.5630710771        4.4567059902
  C        42.9464304578       31.9612854254       13.8037995129
  C        43.6916097838       30.8852322692       13.0903509672
  C        44.6567244428       31.1911429440       12.1185419230
  C        45.2782219781       30.1715758871       11.4007883072
  C        44.9539160795       28.8212837632       11.6379196171
  C        44.0197994340       28.5235986035       12.6481007243
  C        43.3915269108       29.5403460238       13.3602991428
  C        45.5630476255       27.7239425783       10.8526379155
  C        45.5335116743       27.7174144157        9.4313381328
  C        44.8272107207       28.7076962522        8.6784285903
  C        35.0914288191       26.6337677514        8.7294242078
  C        35.0533807781       26.6061726207       11.5389764792
  C        18.1485024469        3.2466396575       13.7016275633
  C        17.4297152463        4.3435787390       12.9924349325
  C        16.4148473590        4.0523049753       12.0685043915
  C        15.7665021641        5.0829356644       11.3930963343
  C        16.1207802509        6.4282086388       11.6161663166
  C        17.1116855381        6.7115887130       12.5739257950
  C        17.7593564530        5.6826794100       13.2537046413
  C        15.4904795030        7.5239951804       10.8436637451
  C        15.4967202938        7.5075625881        9.4225185635
  C        16.1934834037        6.5058570690        8.6758184402
  H        10.6724435491       12.4661145715       11.8990702522
  H        11.6946416569       10.5513033974       10.6572371064
  H        15.3912413898       11.1680288102       12.7677434845
  H        14.3506924266       13.0708561896       14.0130239839
  H        13.3764297761       11.6312893350        9.1962711305
  H        50.3228688342       22.7486231892       11.9819123415
  H        49.3196549606       24.6229835554       10.6758232857
  H        45.6418331053       24.1605295159       12.8579920422
  H        46.6627379191       22.2897822865       14.1663295214
  H        47.6299729860       23.5759064199        9.2408586856
  H        14.8713465462        8.5878860642       12.6035083277
  H        50.2873299302       22.7036000923        4.0646474213
  H        49.2691081713       24.5763684816        5.3646385960
  H        45.6097371395       24.1079764545        3.1519489446
  H        46.6519889160       22.2528524000        1.8377281865
  H        47.6078772458       23.5519099243        6.8017451117
  H        40.6376318775       17.0906960011        3.4147746283
  H        48.6867550198       14.0950450696       15.7948574838
  H        10.6814981990       12.4667802762        4.0986907985
  H        11.6898867730       10.5250208438        5.3024720890
  H        15.3933863037       11.1585998918        3.2101382470
  H        14.3646840463       13.0869762884        1.9947659868
  H        13.3762142548       11.6223286002        6.7582534045
  H        47.9301546854       14.2177239759        1.7161614121
  H        47.7797196654       14.3725192864       14.4896748067
  H        49.0825070010       18.5520945857        2.8720142916
  H        10.4155181712       14.1344028605        0.0037841481
  H        24.4839189845        3.0267334906       11.9150687423
  H        25.6282963825        4.8862200839       10.6915250263
  H        23.2532485093        7.7535623174       12.8451955520
  H        22.1271173342        5.8839912532       14.0697004176
  H        23.8074691477        5.8013997917        9.2700197708
  H        36.3665458557       32.1826961957       11.9631633224
  H        35.2251842183       30.3648217973       10.6950567714
  H        37.4685894814       27.4306696742       12.8990718899
  H        38.5915090092       29.2613815626       14.1758417435
  H        37.0024595493       29.4366966433        9.2881637927
  H        25.7425104432        8.6071775571       12.6560888647
  H        36.4636423233       32.2434760503        4.1230055872
  H        35.3546932348       30.4260455225        5.4219546738
  H        37.5418152501       27.4890483950        3.1639806699
  H        38.6258411760       29.3177892556        1.8526416200
  H        37.0432067734       29.4600098259        6.8510419280
  H        46.1082111983       26.5870853464        3.3905437669
  H        44.6680663264       35.1159280151       15.8087756793
  H        24.4314233677        3.0428705178        4.1004118857
  H        25.5604128210        4.8811294419        5.3533784477
  H        23.1633166346        7.7707374751        3.2549785803
  H        22.0459806432        5.9200402639        2.0024273160
  H        23.7822614490        5.8047043298        6.8312099166
  H        44.9533655895       34.3901930609        1.7002252964
  H        44.9013115983       34.2066318688       14.4854026504
  H        40.6656265742       33.2084436158        2.8578092038
  H        23.1506264344        1.9569984175        0.0112151987
  H        25.8320237881       19.6175761288       11.8654031112
  H        23.6596685010       19.6549190087       10.6399750946
  H        22.3488613924       16.2183633034       12.8681444859
  H        24.5243195452       16.1972148602       14.0950729619
  H        23.7258144240       17.6011751019        9.2350496363
  H        35.1267692855       15.5074436664       11.9095934606
  H        37.2564861316       15.4719022142       10.6162636718
  H        38.6965160322       18.8128304701       12.9125396300
  H        36.5616926779       18.8283596431       14.2130135853
  H        37.2279136243       17.4786715991        9.2319556418
  H        20.3641960580       17.9655337683       12.6618398001
  H        35.1244426089       15.5175959763        4.2387492459
  H        37.2738256939       15.4640569511        5.4702321133
  H        38.7431273448       18.7292177759        3.0811946884
  H        36.5951427100       18.7442785565        1.8042838085
  H        37.2390356222       17.4673964035        6.7929862791
  H        35.1719708073       26.6893715493        3.3963972519
  H        28.5092199785       21.0802134956       15.9624151098
  H        25.7485889154       19.6299017719        4.1694264759
  H        23.5639466774       19.6715490587        5.3849692716
  H        22.3055989696       16.1689167647        3.2312820107
  H        24.4918826443       16.1439197561        2.0158426839
  H        23.7008979160       17.5970817735        6.7967397227
  H        28.9968998673       21.7188749241        1.7764276706
  H        29.1525901933       21.7447780051       14.6108223288
  H        32.1348001877       18.5934709811        2.9615660173
  H        27.3979011262       19.0675967465        0.0928172509
  H        14.8524919273       19.6464637361        4.1462454797
  H        17.0155927687       19.6889255381        5.3885820368
  H        18.2997709983       16.1798575152        3.2587417460
  H        16.1327306157       16.1535708585        2.0158768314
  H        16.9227147637       17.6928932525        6.8532805406
  H        46.0847326389       15.4453160576        4.0747569069
  H        43.9569508609       15.3934994964        5.3777218699
  H        42.5467037841       18.8181303818        3.1899451344
  H        44.6747736475       18.8452140782        1.8768873254
  H        44.0191987495       17.3453844408        6.8260038589
  H        20.2910484248       17.9166332770        3.4250029963
  H        46.0365836415       15.3994154890       12.0137783591
  H        43.9071756425       15.3507500433       10.7163180679
  H        42.5244296436       18.8080945273       12.8690954588
  H        44.6598812968       18.8429878980       14.1675930807
  H        44.0074798199       17.3328757839        9.2652772447
  H        46.1987605846       26.6822238342       12.6181362531
  H        52.7409962248       21.0626013643        0.1997922019
  H        14.8878421036       19.6746349698       11.8930076437
  H        17.0891446305       19.7433800160       10.7148841294
  H        18.3319911416       16.2173081050       12.8404138691
  H        16.1330099365       16.1730691857       14.0287414549
  H        16.9454711762       17.7073856369        9.2906690270
  H        52.3222227037       21.6730835419       14.2891475579
  H        52.0130565179       21.7018971138        1.5008631778
  H        49.0670976354       18.6078447489       13.1989706042
  H        13.2472933411       19.0164753132       15.9719421709
  H        29.9813572829       12.3981603175        4.1722517916
  H        28.9190047277       10.4716856588        5.3500019200
  H        25.2222108102       11.2533603256        3.2958551137
  H        26.2988478314       13.1768743983        2.1139990630
  H        27.2537982687       11.6363790656        6.8113259847
  H        30.9689044606       22.8517875693        3.9541117160
  H        31.9764179378       24.7239053345        5.2346230128
  H        35.7142328386       24.1043903416        3.1957660094
  H        34.6826918303       22.2375988276        1.8923711261
  H        33.6168064672       23.6015534330        6.7342740761
  H        25.6962679774        8.6059898869        3.4195216974
  H        30.9121915764       22.6325527800       11.8718985480
  H        31.9132582071       24.5106230736       10.5754793229
  H        35.5234142154       24.1740677317       12.8923122397
  H        34.4990050734       22.3122237722       14.2016338158
  H        33.5832834087       23.5755250669        9.1721769338
  H        40.5942223821       17.1053494522       12.6442256423
  H        32.5292715394       14.1538571529        0.2581112728
  H        29.9607745115       12.4200824692       12.0388630934
  H        28.9280042984       10.5396211311       10.7625342447
  H        25.1943513538       11.2254989052       12.7848269665
  H        26.2392981268       13.1061675708       14.0592447788
  H        27.2620165310       11.6446873942        9.2473177246
  H        33.3028225847       14.2088964372       14.4365568076
  H        33.4021074433       14.3350576021        1.6492920702
  H        32.1025705822       18.5040478137       13.1542509698
  H        30.2482883627       14.1915338224        0.0852746237
  H        16.1186640614        2.9632990615        4.1352776737
  H        14.9536521296        4.8204127707        5.3280107629
  H        17.3657057921        7.6858973769        3.2145552140
  H        18.5142927796        5.8181495635        2.0146622170
  H        16.7537391629        5.7396053051        6.7767183772
  H        44.8288137684       32.1399756401        3.9812320002
  H        45.9379265295       30.3409893208        5.3106706484
  H        43.6805581560       27.3781329560        3.1586418622
  H        42.5980833274       29.1899601204        1.8159973769
  H        44.2303524394       29.4367294370        6.7739596670
  H        14.8510369859        8.5461123435        3.3684959421
  H        44.9006646633       32.2337988490       11.9274822661
  H        46.0254844341       30.4127534013       10.6478887487
  H        43.7622285501       27.4839170437       12.8391159880
  H        42.6444597888       29.3174716188       14.1181670347
  H        44.2686464085       29.4705257119        9.2130432162
  H        35.0019451456       26.6162658529       12.6261697074
  H        36.6048061453       35.1337514685        0.1859473348
  H        16.1440014246        3.0127047929       11.8984978477
  H        14.9743745634        4.8559963896       10.6828150321
  H        17.3946794743        7.7471142604       12.7512824231
  H        18.5417533417        5.8930860904       13.9789934775
  H        16.7646030781        5.7553908845        9.2142734840
  H        36.2781534077       34.4820873624       14.2680157017
  H        36.3797698542       34.2095446150        1.5052074571
  H        40.5780159570       33.2006639629       13.1489048118
  H        17.4708967421        1.9462733835       15.9687725461
  H        28.9360083848       19.0389221123        4.4676545407
  H        29.0713512713       19.2944949718       11.5485988083
  H        31.8568391991       15.9941165658       11.5614956065
  H        30.7078315639       15.4245629408        4.2225664713
  H        28.3228933252       17.6359010333        6.7063260256
  H        30.5112455802       15.1831491206        6.4312345236
  H        31.5766057343       19.6215088009        9.3502421622
  H        32.7275741036       17.5697243175        9.3837150878
  H        28.0987301851       16.3032446906        8.5074032112
  H        18.8527770834        0.8689169675        4.3403675616
  H        40.5278281890       35.2292436403       11.9472218409
  H        42.3224047573       34.4174189521       11.5865577808
  H        22.0880823007        0.6919171355        4.3564440903
  H        11.5970045233       18.7130633846        4.3875256805
  H        52.2647437361       18.4311345826       11.6721219383
  H        49.2552109804       16.4769352442       11.5793838253
  H        10.1499061882       15.7981343470        4.2980289204
  H        50.8498851107       17.6923463984       11.9492568712
  H        10.0459625686       17.3944688866        4.0571028629
  H        20.2137428239        0.0021678302        4.0472938252
  H        39.1830659953       36.1241219960       11.6815190159
 Ni        30.8620028200       17.9184869135       10.8313243165
 Ni        31.0809919957       16.4694158582        8.3209553223
 Ni        29.8432802854       18.8964919338        8.0031765289
 Ni        30.1375233702       17.3489289396        5.3262919257
  O        10.6498316982       14.3651403766       13.4807121029
  O        12.6131428055       14.6575504034       14.5787667699
  O        49.1478685869       16.8459862179       15.9846374845
  O        50.3502678988       20.9357869142       13.6430273426
  O        48.3485733587       20.5933057895       14.6608367060
  O        11.0513486169       17.0539562574       14.4954442889
  O        50.3210222581       20.8816545895        2.4118827577
  O        48.3467736245       20.5867380152        1.3322011957
  O        49.5435851750       18.2484442220        2.0733740421