     586
 i =      208, E =     -4847.8211591475
  C        11.8585916501       14.0534902480       13.7364350117
  C        12.4560896031       12.8905419801       13.0180383910
  C        11.7043948231       12.1715735635       12.0764355327
  C        12.2807705552       11.1093427167       11.3841075784
  C        13.6213419948       10.7395767825       11.6118474636
  C        14.3545471487       11.4432450008       12.5852036240
  C        13.7816520571       12.5082400675       13.2766722747
  C        14.2608687630        9.6488558052       10.8385213459
  C        14.2563133743        9.6568021666        9.4168257470
  C        13.7433266726       10.7590156695        8.6629312431
  C        49.1267850583       21.2333502916       13.8745564346
  C        48.5500062888       22.4012795517       13.1475027607
  C        49.3000510467       23.0686454469       12.1665514064
  C        48.7330904371       24.1077566512       11.4333340040
  C        47.4025161385       24.5093122777       11.6619168946
  C        46.6715467709       23.8604112138       12.6754051033
  C        47.2340408809       22.8155460899       13.4047770885
  C        46.7722419925       25.5869669448       10.8646247570
  C        46.7613024236       25.5573811518        9.4428650930
  C        47.2613361478       24.4423298547        8.6993762515
  C        14.8602136712        8.5704217039        8.7035947289
  C        14.8914260136        8.5968099871       11.5152107674
  C        49.1131848488       21.2034879264        2.1504513358
  C        48.5278050755       22.3648512000        2.8775924384
  C        49.2670600956       23.0256584274        3.8704215552
  C        48.6907149194       24.0602012636        4.6018856835
  C        47.3602641401       24.4568774165        4.3637121139
  C        46.6398046557       23.8118866771        3.3402754651
  C        47.2133914173       22.7760031587        2.6084915617
  C        46.7218040760       25.5318304291        5.1547386658
  C        46.7335421460       25.5281922718        6.5764385857
  C        47.2490967232       24.4290375236        7.3328250279
  C        40.6322157007       17.1435744959        7.3197504479
  C        40.6525117964       17.1653436152        4.5109557054
  C        11.8829761653       14.0864603545        2.2906409135
  C        12.4723097413       12.9106743934        2.9949496226
  C        11.7147650376       12.1773606829        3.9209314862
  C        12.2813437295       11.0948882470        4.5893397933
  C        13.6202162306       10.7213112122        4.3576238697
  C        14.3582562117       11.4370005607        3.3969789628
  C        13.7928219806       12.5181919049        2.7243277420
  C        14.2538060494        9.6245138478        5.1280005547
  C        14.2526085959        9.6444997279        6.5498374882
  C        13.7428096703       10.7534955529        7.2968882853
  C        22.5163524860        3.2462568023       13.7492563155
  C        23.2407388478        4.3507543934       13.0542670433
  C        24.2425423551        4.0665437255       12.1140239856
  C        24.8799927084        5.1025960096       11.4354928081
  C        24.5329624044        6.4470866047       11.6762304239
  C        23.5596644359        6.7230050351       12.6540782290
  C        22.9173576288        5.6883748763       13.3310148716
  C        25.1471958935        7.5492362411       10.8978653406
  C        25.1114101209        7.5405018874        9.4760202057
  C        24.3969298102        6.5457928955        8.7350301460
  C        38.3047318285       31.9282027845       13.8424115139
  C        37.5820683030       30.8359145449       13.1305408831
  C        36.6259069330       31.1336420521       12.1476524109
  C        36.0173927765       30.1090276198       11.4278538094
  C        36.3501723750       28.7616090260       11.6694429076
  C        37.2764137218       28.4714706902       12.6888946251
  C        37.8891393411       29.4945524955       13.4072790951
  C        35.7564989852       27.6654814506       10.8717410255
  C        35.7883158323       27.6806340339        9.4504684608
  C        36.4884559990       28.6866347476        8.7126769224
  C        25.7376433894        8.6046489990        8.7499880806
  C        25.7568349987        8.6219169630       11.5625461561
  C        38.3283438790       31.9626331340        2.1597784680
  C        37.6061521650       30.8889120199        2.8985170605
  C        36.6819062419       31.1956315854        3.9087663175
  C        36.0742991368       30.1751841349        4.6373574182
  C        36.3770302569       28.8235286793        4.3783742297
  C        37.2772441408       28.5269806149        3.3368560544
  C        37.8871546730       29.5437064593        2.6096913712
  C        35.7756882038       27.7217228682        5.1626971958
  C        35.7978038459       27.7095165840        6.5842426511
  C        36.4930983982       28.7003924846        7.3461590324
  C        46.1355158967       26.6208193502        7.2865670830
  C        46.0877454437       26.5801217961        4.4786785774
  C        22.4592772263        3.2553189359        2.2641212700
  C        23.1507204177        4.3631870033        2.9912817899
  C        24.1507234123        4.0749033004        3.9335698809
  C        24.7781058944        5.1033437565        4.6324646013
  C        24.4258183823        6.4497806050        4.4110952161
  C        23.4475419489        6.7313578417        3.4386587923
  C        22.8153804712        5.7029982165        2.7404860800
  C        25.0623114270        7.5460604805        5.1829333290
  C        25.0681012992        7.5383221117        6.6059064924
  C        24.3750928057        6.5454851556        7.3684345326
  C        26.5825255067       17.7917193206       13.7914624202
  C        25.2756463571       17.8301623990       13.0648379644
  C        25.0268127868       18.8281195143       12.1096968945
  C        23.8195630629       18.8522123816       11.4151936616
  C        22.8266877247       17.8807244408       11.6549850545
  C        23.0718395789       16.9048556051       12.6389594999
  C        24.2817396963       16.8761724013       13.3315530881
  C        21.5581995582       17.8749772393       10.8855639867
  C        21.5632196381       17.8639478659        9.4633255128
  C        22.7708288383       17.7410941837        8.7058742808
  C        34.4203151560       17.2388234622       13.8709126974
  C        35.7122612603       17.1855066998       13.1290249453
  C        35.9434819761       16.1885444990       12.1680886593
  C        37.1295498015       16.1738061234       11.4399647503
  C        38.1183144105       17.1523952673       11.6588237737
  C        37.8926545552       18.1280774394       12.6473516260
  C        36.7023205740       18.1494133720       13.3700380607
  C        39.3770298131       17.1572189478       10.8802710168
  C        39.3730134216       17.1663057718        9.4594305731
  C        38.1653298804       17.2830406695        8.7013121509
  C        20.3193571586       17.8955111119        8.7513830884
  C        20.3321138465       17.8816274279       11.5641774903
  C        34.4720954020       17.2493451601        2.1799637494
  C        35.7765172120       17.1707890457        2.9013575692
  C        35.9943726320       16.1809104026        3.8714483768
  C        37.1795494128       16.1632529493        4.6015360834
  C        38.1753790238       17.1336094686        4.3780182950
  C        37.9649941086       18.0973708426        3.3746885859
  C        36.7770149186       18.1209786944        2.6491420627
  C        39.4213985419       17.1531140339        5.1746676798
  C        39.3958620472       17.1650144494        6.5953070921
  C        38.1765752400       17.2803189608        7.3348249835
  C        35.1769779827       26.6251260429        7.2882395090
  C        35.1808474250       26.6540211367        4.4796551556
  C        26.5723750697       17.8215956492        2.3358780083
  C        25.2579441525       17.8729070222        3.0393336952
  C        24.9962500483       18.8721644532        3.9886532049
  C        23.7776219020       18.8967649454        4.6607405744
  C        22.7920461087       17.9227072756        4.4052106304
  C        23.0474189622       16.9496926903        3.4220946429
  C        24.2668707208       16.9223371620        2.7493649480
  C        21.5272007863       17.9012694985        5.1747983897
  C        21.5474138116       17.8767174299        6.5958261294
  C        22.7634351118       17.7476547638        7.3396310437
  C        14.0463176341       17.8304725552        2.2913030653
  C        15.3521034801       17.8908382983        3.0115944611
  C        15.6094038346       18.8953597688        3.9574087923
  C        16.8195415305       18.9171034100        4.6477173880
  C        17.8051018594       17.9372987617        4.4131416959
  C        17.5533688297       16.9583791426        3.4336609532
  C        16.3426607913       16.9318101427        2.7452715605
  C        19.0722105832       17.9155425380        5.1834859790
  C        19.0661184817       17.9001583432        6.6054122071
  C        17.8559814012       17.8006054451        7.3616854890
  C        46.8067611826       17.2194441624        2.1637926546
  C        45.5181619200       17.1611433027        2.9103281988
  C        45.3127460074       16.1879481704        3.9001701171
  C        44.1317391277       16.1749574223        4.6370423012
  C        43.1280134155       17.1352214016        4.4046644240
  C        43.3307847797       18.0879938291        3.3883798597
  C        44.5124764779       18.1050858235        2.6528692102
  C        41.8752356850       17.1510499523        5.1916975165
  C        41.8797041734       17.1546681364        6.6131400364
  C        43.0877705898       17.2512090636        7.3732051457
  C        20.3106826510       17.8993505850        7.3171055043
  C        20.2975733928       17.8994989875        4.5042582141
  C        46.7849511374       17.2324883796       13.8834199815
  C        45.4812116042       17.1317129748       13.1675986387
  C        45.2588857009       16.1379020159       12.2025067558
  C        44.0705311821       16.1187001569       11.4763651430
  C        43.0751219207       17.0902611161       11.6981915274
  C        43.2874084296       18.0531381691       12.7023562856
  C        44.4768474010       18.0788264078       13.4233666216
  C        41.8297776984       17.1207012670       10.9001530765
  C        41.8564853531       17.1376380236        9.4792644810
  C        43.0769171143       17.2402505729        8.7397349122
  C        46.1532533716       26.6372317710        8.7211076346
  C        46.1621959784       26.6560319771       11.5307503366
  C        14.0417257770       17.8272453966       13.7014089452
  C        15.3580814247       17.8906429505       13.0041706443
  C        15.6359650658       18.9060479794       12.0772690457
  C        16.8623771175       18.9333852841       11.4178354761
  C        17.8362812622       17.9442410573       11.6606047812
  C        17.5647724397       16.9565318006       12.6243896097
  C        16.3407119357       16.9286486071       13.2873197069
  C        19.1027626290       17.9123373930       10.8932753380
  C        19.0821666122       17.8973797680        9.4721861562
  C        17.8638102269       17.7999412294        8.7277758123
  C        28.8048499860       14.0874532170        2.3934018638
  C        28.1927154734       12.9137569615        3.0816323626
  C        28.9284365890       12.1512578249        4.0011486978
  C        28.3318232111       11.0742765847        4.6519556810
  C        26.9856959398       10.7356741779        4.4068618349
  C        26.2704095495       11.4787414600        3.4509421387
  C        26.8649340101       12.5560996011        2.7984953611
  C        26.3220536060        9.6539817004        5.1707731194
  C        26.3284174719        9.6755386739        6.5915958134
  C        26.8520296374       10.7820732834        7.3327832901
  C        32.1786460604       21.2400766953        2.1518779052
  C        32.7726771141       22.4069204730        2.8668167940
  C        32.0385699618       23.0662656791        3.8643673492
  C        32.6142904508       24.1041500479        4.5900927181
  C        33.9398844782       24.5082888694        4.3403455979
  C        34.6556661864       23.8672647541        3.3116204148
  C        34.0823740747       22.8248095077        2.5868420195
  C        34.5759629732       25.5790699498        5.1396160104
  C        34.5843040826       25.5415343718        6.5609065655
  C        34.0903233543       24.4191063990        7.2980755934
  C        25.7190210620        8.6008564330        7.3154097145
  C        25.6737103295        8.6078761131        4.5020970995
  C        32.1103116707       21.2261818977       13.8719115127
  C        32.7161716551       22.3620989245       13.1157334102
  C        31.9932673955       23.0178788542       12.1077280291
  C        32.5826385519       24.0435304155       11.3725823079
  C        33.9087442107       24.4440929478       11.6282399883
  C        34.6158096962       23.7997096728       12.6610154153
  C        34.0310375960       22.7677881153       13.3905839013
  C        34.5532090771       25.5249931900       10.8478430112
  C        34.5724571742       25.5147902247        9.4262999999
  C        34.0840025160       24.4069616734        8.6645960793
  C        40.6203814951       17.1397082468        8.7534968834
  C        40.5978285251       17.1509918690       11.5636022806
  C        28.7744084795       14.1037961041       13.7730860007
  C        28.1778802939       12.9481670588       13.0328891193
  C        28.9295182303       12.2216164611       12.0956208521
  C        28.3553508153       11.1515084798       11.4100886808
  C        27.0146593222       10.7793286275       11.6391886140
  C        26.2806044620       11.4944345421       12.6030539560
  C        26.8523025496       12.5642584608       13.2889157311
  C        26.3730970700        9.6784381332       10.8783278081
  C        26.3562255164        9.6874142597        9.4571436614
  C        26.8633740820       10.7887220969        8.6982092753
  C        18.1354613370        3.1809767140        2.3221422824
  C        17.4060765298        4.2782117751        3.0207059707
  C        16.3905974352        3.9997520278        3.9484579527
  C        15.7428113515        5.0396645772        4.6120030257
  C        16.0944468801        6.3834374322        4.3721937203
  C        17.0834845362        6.6530528743        3.4080846449
  C        17.7326189784        5.6157784762        2.7429738297
  C        15.4701297431        7.4911016636        5.1352813058
  C        15.4853930058        7.4903764946        6.5570000346
  C        16.1867891689        6.4966756795        7.3102106003
  C        42.9459024165       31.8594621855        2.0780108199
  C        43.6462377216       30.7718586314        2.8219744589
  C        44.5920311053       31.0931240787        3.8078145940
  C        45.1976855587       30.0875508743        4.5554719434
  C        44.8709587214       28.7345294004        4.3407845684
  C        43.9448640687       28.4202300976        3.3278142809
  C        43.3360878388       29.4254042677        2.5797979794
  C        45.4885528338       27.6552377930        5.1439646149
  C        45.4927223095       27.6808867721        6.5656475328
  C        44.8056102225       28.6889297974        7.3122508723
  C        14.8564920210        8.5629062396        7.2693692234
  C        14.8749118237        8.5629289685        4.4567067537
  C        42.9464649180       31.9614851545       13.8038777144
  C        43.6916073700       30.8854187895       13.0903195347
  C        44.6563835525       31.1912885151       12.1181809832
  C        45.2778444404       30.1716804231       11.4004465829
  C        44.9538286772       28.8213864250       11.6379095229
  C        44.0200622957       28.5237569179       12.6484297687
  C        43.3918499719       29.5405381811       13.3606102202
  C        45.5628865051       27.7239994779       10.8526729688
  C        45.5332154510       27.7173543973        9.4313814545
  C        44.8268632289       28.7075685160        8.6784352991
  C        35.1717789112       26.6109225419        8.7226378570
  C        35.1568117287       26.5868862359       11.5319494706
  C        18.1485213257        3.2468012453       13.7015302264
  C        17.4296746896        4.3436271314       12.9924737211
  C        16.4147107867        4.0522774615       12.0686474531
  C        15.7663279537        5.0828523723       11.3932364442
  C        16.1206471826        6.4281494289       11.6161788964
  C        17.1116335765        6.7116051952       12.5738334619
  C        17.7593785179        5.6827504439       13.2536169794
  C        15.4902512536        7.5238434200       10.8436561026
  C        15.4962370840        7.5072214561        9.4225158354
  C        16.1929336220        6.5054700777        8.6758195982
  H        10.6722474180       12.4656717141       11.8994655330
  H        11.6944746417       10.5507884912       10.6576310306
  H        15.3916010889       11.1687108090       12.7668822162
  H        14.3511014343       13.0715421539       14.0120600165
  H        13.3763758011       11.6311549688        9.1962598824
  H        50.3227945228       22.7486783671       11.9818626233
  H        49.3195911496       24.6230744097       10.6758019333
  H        45.6420353012       24.1611457419       12.8585404407
  H        46.6630499620       22.2903030488       14.1668838796
  H        47.6299644013       23.5759893871        9.2410601679
  H        14.8716123365        8.5880403413       12.6035145557
  H        50.2871510080       22.7029001183        4.0652558064
  H        49.2691475524       24.5757476263        5.3652993949
  H        45.6103740997       24.1090854128        3.1512815021
  H        46.6525449585       22.2538088006        1.8369724090
  H        47.6079592589       23.5519542388        6.8019224472
  H        40.6596326953       17.1308223498        3.4232320204
  H        48.6870459696       14.0951325931       15.7949372829
  H        10.6812405751       12.4663197986        4.0981941504
  H        11.6895148194       10.5243802471        5.3019150108
  H        15.3937590748       11.1592827779        3.2112075065
  H        14.3652238692       13.0877464986        1.9959949485
  H        13.3760932548       11.6221373800        6.7582196577
  H        47.9302807522       14.2181662389        1.7160187659
  H        47.7799774532       14.3737630617       14.4901201924
  H        49.0840798095       18.5527747865        2.8725450601
  H        10.4159091041       14.1342527965        0.0038106205
  H        24.4992862651        3.0266916722       11.9241765225
  H        25.6555366775        4.8795002997       10.7059114024
  H        23.2826858059        7.7572388687       12.8478219252
  H        22.1438964736        5.8942487592       14.0670455470
  H        23.8350496771        5.7926405011        9.2797050859
  H        36.3843801094       32.1753601523       11.9499558536
  H        35.2752888531       30.3431660574       10.6677775887
  H        37.5406593365       27.4339506427       12.8826910449
  H        38.6301171124       29.2784778424       14.1732087464
  H        37.0528975926       29.4373689890        9.2580887834
  H        25.7946129639        8.6093610061       12.6503979276
  H        36.4614716331       32.2394271669        4.1206735539
  H        35.3526489477       30.4174517429        5.4143526259
  H        37.5214771246       27.4870598821        3.1304436697
  H        38.6056514319       29.3205126814        1.8248426707
  H        37.0621528931       29.4612517543        6.8197965769
  H        46.1090947555       26.5874846259        3.3906425816
  H        44.6681019117       35.1160371359       15.8088000936
  H        24.4276354953        3.0362041871        4.0991247426
  H        25.5582331781        4.8727092909        5.3547909878
  H        23.1634480506        7.7663067037        3.2592517742
  H        22.0447556770        5.9174029738        2.0036019230
  H        23.7956212241        5.7926731965        6.8418031529
  H        44.9534010471       34.3900496803        1.6999872799
  H        44.9010378965       34.2065423950       14.4854622298
  H        40.6654924486       33.2088117531        2.8579475038
  H        23.1509002890        1.9574424539        0.0108384328
  H        25.7953882386       19.5776423751       11.9326465824
  H        23.6283152621       19.6328737189       10.6818505721
  H        22.3149358400       16.1472175021       12.8316915152
  H        24.4835588643       16.1109553357       14.0775896344
  H        23.7085280829       17.6119579058        9.2384379529
  H        35.1848908582       15.4249485794       12.0109534167
  H        37.3094688121       15.3948266254       10.7021773312
  H        38.6498878775       18.8903403299       12.8189258080
  H        36.5092743561       18.9157253523       14.1172204241
  H        37.2246208989       17.4059537239        9.2307627343
  H        20.3360247388       17.9161150048       12.6521814363
  H        35.2170061537       15.4405337714        4.0468996949
  H        37.3481842578       15.3936775905        5.3517443562
  H        38.7289042349       18.8518859705        3.1985681423
  H        36.5905407527       18.8825520517        1.8955904325
  H        37.2448887087       17.3995871458        6.7893104875
  H        35.1411638242       26.6865638516        3.3925170152
  H        28.5047617999       21.0735496542       15.9659325218
  H        25.7591292515       19.6225621357        4.1825067789
  H        23.5744139944       19.6747915861        5.3934556987
  H        22.2932694283       16.1921310789        3.2189853928
  H        24.4811360707       16.1598066807        2.0043922072
  H        23.6959318878       17.6245248669        6.7967176589
  H        29.0106618926       21.7150132493        1.7597611640
  H        29.1703330869       21.7325181990       14.6222876755
  H        32.1380743267       18.5776494393        2.9723233978
  H        27.3735680932       19.0243454906        0.1006156527
  H        14.8503008302       19.6534608075        4.1366757987
  H        17.0162313767       19.7008351391        5.3761410970
  H        18.3052258627       16.1949841581        3.2443668558
  H        16.1350079200       16.1626414296        2.0052486428
  H        16.9147040190       17.6937016878        6.8305245365
  H        46.0953950212       15.4558509665        4.0847403918
  H        43.9713481080       15.4130071475        5.3966111657
  H        42.5629377395       18.8369432352        3.2060190737
  H        44.6871781889       18.8546934368        1.8847022137
  H        44.0299159313       17.3654875450        6.8447188902
  H        20.2945836365       17.9394019322        3.4164446660
  H        46.0329750778       15.3953237399       12.0226081015
  H        43.9009709982       15.3478864960       10.7277082910
  H        42.5240344218       18.8076355536       12.8805836478
  H        44.6625515824       18.8416995380       14.1753868837
  H        44.0107260142       17.3447701096        9.2845400532
  H        46.1989667462       26.6825524926       12.6181992070
  H        52.7413665016       21.0627135127        0.1998017604
  H        14.8816013769       19.6673597690       11.8913225919
  H        17.0795658137       19.7238170910       10.7026396200
  H        18.3093834770       16.1871111372       12.8177240402
  H        16.1140450263       16.1545304950       14.0163016782
  H        16.9283515611       17.6926916550        9.2686763799
  H        52.3229743128       21.6735897072       14.2890826800
  H        52.0137624699       21.7026367992        1.5006935356
  H        49.0676691146       18.6079936191       13.1987923717
  H        13.2476761807       19.0159622169       15.9711987079
  H        29.9671224000       12.4135181901        4.1893158488
  H        28.9040198655       10.4813197718        5.3622831812
  H        25.2300491016       11.2271995819        3.2551987331
  H        26.3112825540       13.1507550497        2.0759144040
  H        27.2183198450       11.6468266107        6.7878329212
  H        31.0226569304       22.7376037159        4.0686922082
  H        32.0408458701       24.6144177496        5.3607577992
  H        35.6816744885       24.1706452461        3.1136803727
  H        34.6404363513       22.3032529184        1.8126834082
  H        33.7375225947       23.5489049162        6.7518178021
  H        25.6907907654        8.5912111888        3.4137832728
  H        30.9701632508       22.7080206351       11.9080658170
  H        32.0143716508       24.5539349307       10.5980445032
  H        35.6427497436       24.0971506784       12.8630683346
  H        34.5809035109       22.2487970750       14.1721634780
  H        33.7273837590       23.5272373798        9.1927366577
  H        40.5879272090       17.1153789611       12.6513391379
  H        32.5124803222       14.1608158690        0.2496771494
  H        29.9712335519       12.4960096576       11.9367765949
  H        28.9465135491       10.5825207849       10.6954053066
  H        25.2433010348       11.2213244675       12.7859434446
  H        26.2822278207       13.1297219843       14.0222096292
  H        27.2373248154       11.6587469641        9.2296909644
  H        33.2956759559       14.2113081256       14.4377644661
  H        33.4070192367       14.4048035634        1.6082984447
  H        32.0129031986       18.5617884233       13.1148330810
  H        30.2365584160       14.1938230385        0.0703644024
  H        16.1187143847        2.9632176534        4.1349627514
  H        14.9534876864        4.8201638949        5.3277667826
  H        17.3655442234        7.6859828825        3.2147204776
  H        18.5143084239        5.8184960531        2.0147739442
  H        16.7532160048        5.7392221664        6.7767351370
  H        44.8285495068       32.1401759514        3.9818320088
  H        45.9377173280       30.3412113644        5.3112852856
  H        43.6818583410       27.3782023896        3.1579289572
  H        42.5992139530       29.1900928607        1.8153771038
  H        44.2301755600       29.4366235316        6.7739275079
  H        14.8510827232        8.5461649681        3.3684889682
  H        44.9001302518       32.2339474375       11.9268882977
  H        46.0249174203       30.4128299899       10.6473511634
  H        43.7628590657       27.4840508507       12.8397876034
  H        42.6451314239       29.3177386527       14.1188359919
  H        44.2682518306       29.4703781383        9.2130233981
  H        35.1108127320       26.6003927242       12.6192735268
  H        36.6048620932       35.1339323024        0.1859448369
  H        16.1438481254        3.0126688063       11.8987462509
  H        14.9741769961        4.8558924668       10.6829916898
  H        17.3947262556        7.7471328523       12.7510398988
  H        18.5419281813        5.8932813673       13.9787062027
  H        16.7641614939        5.7550735215        9.2142570547
  H        36.2780243755       34.4826229051       14.2679583835
  H        36.3804287011       34.2095164079        1.5052414319
  H        40.5802936645       33.2025647540       13.1483188078
  H        17.4709780129        1.9474972255       15.9689015339
  H        28.7920348915       18.9362008881        4.4020513583
  H        29.8760419790       20.0075055449       11.7986138969
  H        32.3655388756       16.4478356431       11.9433438871
  H        31.0135764908       15.3728711362        4.3473148701
  H        28.4367453998       17.2761908670        7.0296687724
  H        29.2367786911       14.9937237322        6.6729748901
  H        31.7889718132       20.1371191974        9.4158682646
  H        32.8007424791       17.5911017996        9.9418859042
  H        29.0626408994       16.9702464260        9.5986380310
  H        18.8530617659        0.8688680156        4.3404835397
  H        40.5275571094       35.2293075183       11.9469517253
  H        42.3240941078       34.4188825362       11.5856792246
  H        22.0878340859        0.6918782134        4.3566290268
  H        11.5967306764       18.7130171246        4.3878395793
  H        52.2649154004       18.4316284887       11.6719929152
  H        49.2552499196       16.4768328135       11.5791578554
  H        10.1505883238       15.7982913262        4.2977363078
  H        50.8502749869       17.6925295459       11.9490041295
  H        10.0462427428       17.3946300948        4.0570172163
  H        20.2142712630        0.0021595480        4.0471943696
  H        39.1832640016       36.1244080415       11.6814547722
 Ni        31.1164652690       18.2017983026       10.9055773610
 Ni        31.1178294747       16.1562580491        8.3246202693
 Ni        30.0177596561       18.9389918840        7.8354076307
 Ni        30.1828317248       17.2798546029        5.4110279835
  O        10.6497852147       14.3650765460       13.4807085425
  O        12.6130430790       14.6573296781       14.5787537879
  O        49.1480052263       16.8458954555       15.9845472325
  O        50.3502064530       20.9360388953       13.6429943031
  O        48.3485494558       20.5933537973       14.6607939884
  O        11.0513908657       17.0539291857       14.4955265836
  O        50.3209486758       20.8816882834        2.4119706447
  O        48.3467265235       20.5867882241        1.3322270788
  O        49.5437620028       18.2484607350        2.0733755834