     586
 i =      291, E =     -4847.8556328407
  C        11.8589553747       14.0534645850       13.7364349108
  C        12.4566024196       12.8907032962       13.0179922579
  C        11.7048244679       12.1715349381       12.0765832427
  C        12.2812336830       11.1093478980       11.3842463189
  C        13.6219138092       10.7398281554       11.6117844974
  C        14.3551938847       11.4436576173       12.5849697178
  C        13.7822732462       12.5086320577       13.2764555522
  C        14.2613608611        9.6490913878       10.8384307090
  C        14.2566414854        9.6569870868        9.4167389952
  C        13.7434056261       10.7590916721        8.6628557712
  C        49.1131466141       21.2063974282       13.8419256308
  C        48.5391930566       22.3803950607       13.1228732050
  C        49.2866739724       23.0452006480       12.1384425768
  C        48.7228035181       24.0929897082       11.4156067039
  C        47.3968939044       24.5035215805       11.6557156257
  C        46.6695477466       23.8578217258       12.6737697904
  C        47.2300454626       22.8064090934       13.3952391470
  C        46.7672263977       25.5835625234       10.8616063941
  C        46.7537151316       25.5533536324        9.4398419996
  C        47.2487983170       24.4363011925        8.6959633875
  C        14.8604490663        8.5705885255        8.7034681959
  C        14.8921502619        8.5971692166       11.5150912731
  C        49.1133633727       21.2033817151        2.1496478672
  C        48.5277568419       22.3648170250        2.8765369515
  C        49.2649165893       23.0236349496        3.8722214539
  C        48.6874935802       24.0578806822        4.6033113065
  C        47.3582021013       24.4563787936        4.3616313107
  C        46.6400498720       23.8134720131        3.3353165712
  C        47.2145901762       22.7777731763        2.6040762425
  C        46.7187355618       25.5310118823        5.1521875551
  C        46.7275189341       25.5258000066        6.5737958181
  C        47.2378373037       24.4239427123        7.3295405482
  C        40.6358990395       17.1663509606        7.3273016779
  C        40.6550661421       17.1869990743        4.5182998248
  C        11.8830689361       14.0865177624        2.2906421024
  C        12.4723555583       12.9107099176        2.9948345649
  C        11.7148205985       12.1775032185        3.9209294713
  C        12.2814140022       11.0950515473        4.5893441680
  C        13.6202291012       10.7213210991        4.3574830237
  C        14.3582083472       11.4368972672        3.3966945284
  C        13.7927897701       12.5180687735        2.7240107341
  C        14.2538512946        9.6245867653        5.1278935346
  C        14.2526118522        9.6445742650        6.5497315097
  C        13.7428086994       10.7535509318        7.2968107289
  C        22.5136142321        3.2443564984       13.7484071707
  C        23.2326850828        4.3479739069       13.0501052107
  C        24.2305430664        4.0641448121       12.1058151442
  C        24.8626398580        5.1009144411       11.4241443962
  C        24.5127765251        6.4441445949       11.6663930849
  C        23.5432768787        6.7195730889       12.6479688191
  C        22.9065067461        5.6844971876       13.3281044592
  C        25.1221789373        7.5482317266       10.8895074857
  C        25.0905894399        7.5415277545        9.4679572695
  C        24.3848069969        6.5436408957        8.7233251566
  C        38.3035379455       31.9290175513       13.8432282950
  C        37.5766745964       30.8381064205       13.1324915976
  C        36.6201658375       31.1393408271       12.1509839438
  C        36.0065013472       30.1171423464       11.4320981581
  C        36.3341753480       28.7685697601       11.6736500745
  C        37.2609668877       28.4748646550       12.6915485856
  C        37.8791039795       29.4957266025       13.4087997056
  C        35.7348716696       27.6748247832       10.8765393353
  C        35.7692103821       27.6877718664        9.4552807712
  C        36.4765575395       28.6891861347        8.7181012208
  C        25.7125877261        8.6110065014        8.7464315875
  C        25.7243544562        8.6214060690       11.5585499518
  C        38.3291127565       31.9620643493        2.1609842814
  C        37.6090249165       30.8873068549        2.9020432897
  C        36.6825745750       31.1930618411        3.9105590536
  C        36.0757266976       30.1722300796        4.6395888231
  C        36.3811515811       28.8205769702        4.3831830120
  C        37.2846034732       28.5248558071        3.3441795364
  C        37.8936871880       29.5420929506        2.6166176295
  C        35.7770130840       27.7192499860        5.1669223413
  C        35.7907315792       27.7105246366        6.5887707766
  C        36.4865294760       28.7003597779        7.3516071438
  C        46.1310495646       26.6190441772        7.2842141451
  C        46.0868970213       26.5806286150        4.4762680553
  C        22.4607702016        3.2554855801        2.2627701791
  C        23.1550234693        4.3634037577        2.9863161373
  C        24.1580965832        4.0759194015        3.9256396625
  C        24.7868623125        5.1050065225        4.6222990699
  C        24.4325795329        6.4510791204        4.4020238931
  C        23.4523941072        6.7318815623        3.4313344713
  C        22.8190442434        5.7030128143        2.7351232979
  C        25.0650101502        7.5482571885        5.1758949106
  C        25.0617474483        7.5410055252        6.5987342827
  C        24.3696225059        6.5442317719        7.3566534833
  C        26.6246500297       17.8613392499       13.7764535470
  C        25.3172864967       17.9133327797       13.0534354964
  C        25.0754489454       18.8940920831       12.0787278386
  C        23.8618637902       18.9220124170       11.3942806909
  C        22.8557674203       17.9705126136       11.6589799183
  C        23.0960050531       17.0110446349       12.6612826769
  C        24.3101616586       16.9790805328       13.3454301608
  C        21.5833378740       17.9573418538       10.8937051322
  C        21.5827477347       17.9348665821        9.4706978157
  C        22.7884678541       17.8141731409        8.7089688206
  C        34.4252738341       17.2265903903       13.8801829795
  C        35.7204875179       17.1733937995       13.1440252794
  C        35.9209502556       16.2216382115       12.1323770338
  C        37.1080755760       16.2086237878       11.4066088317
  C        38.1238389385       17.1474436790       11.6709326625
  C        37.9260658414       18.0784942040       12.7082277130
  C        36.7374022415       18.0957441832       13.4332410931
  C        39.3797636595       17.1593677355       10.8893777414
  C        39.3768129737       17.1860817871        9.4681512870
  C        38.1712200028       17.3235080256        8.7100642296
  C        20.3351334641       17.9473102133        8.7630914241
  C        20.3577192507       17.9572191193       11.5758171843
  C        34.4767892287       17.2499713928        2.1841430957
  C        35.7787476746       17.1815572211        2.9105559727
  C        35.9956013819       16.2011369058        3.8907053452
  C        37.1803977576       16.1911079372        4.6216611067
  C        38.1769501948       17.1591586295        4.3889658321
  C        37.9663055563       18.1139996547        3.3774136106
  C        36.7786334403       18.1303324672        2.6510571876
  C        39.4243597634       17.1812321505        5.1829662393
  C        39.3999677165       17.1967436243        6.6032652244
  C        38.1826300647       17.3255795606        7.3436029334
  C        35.1610509421       26.6309492355        7.2927489508
  C        35.1856954385       26.6494207824        4.4836354636
  C        26.5709001421       17.8216061740        2.3331927378
  C        25.2577308031       17.8741427191        3.0406675476
  C        24.9839210770       18.8998012686        3.9589358321
  C        23.7647929170       18.9294639112        4.6306729282
  C        22.7919105730       17.9338906014        4.4088342668
  C        23.0606333318       16.9333658474        3.4581352401
  C        24.2794030265       16.9020511502        2.7832341972
  C        21.5278579830       17.9187456250        5.1811989339
  C        21.5539674333       17.9137220148        6.6021174284
  C        22.7738536494       17.8032483611        7.3427087911
  C        14.0466130181       17.8290490850        2.2943905058
  C        15.3505904691       17.8865765399        3.0205794449
  C        15.6052852368       18.8889189431        3.9697122005
  C        16.8139243509       18.9109877697        4.6631183084
  C        17.8026666370       17.9337493474        4.4296414038
  C        17.5524826459       16.9553388664        3.4488100978
  C        16.3431704753       16.9285846892        2.7569971586
  C        19.0723534764       17.9200364179        5.1979251828
  C        19.0727306183       17.9189011185        6.6205500863
  C        17.8667653953       17.8164311481        7.3828912220
  C        46.8070137239       17.2205994110        2.1646500899
  C        45.5190681410       17.1656567493        2.9130838571
  C        45.3115182248       16.1935684423        3.9035702090
  C        44.1313133304       16.1848562565        4.6420670024
  C        43.1304604213       17.1483924848        4.4106764898
  C        43.3354101846       18.1001729533        3.3938925695
  C        44.5161554604       18.1129059119        2.6567914416
  C        41.8780985270       17.1690991017        5.1986413418
  C        41.8831936804       17.1721422669        6.6201903787
  C        43.0918921288       17.2614617259        7.3800572398
  C        20.3200431668       17.9358363885        7.3282012846
  C        20.2960823999       17.9024259282        4.5147030876
  C        46.7859362778       17.2311502195       13.8850079915
  C        45.4819990060       17.1279948225       13.1715219417
  C        45.2616065671       16.1343645851       12.2060097839
  C        44.0733195386       16.1140263474       11.4801695346
  C        43.0773690083       17.0841520066       11.7040090141
  C        43.2871914070       18.0459943815       12.7094776125
  C        44.4766376050       18.0730443644       13.4298412293
  C        41.8328293921       17.1171311440       10.9059580843
  C        41.8601292678       17.1440191650        9.4855396169
  C        43.0808545312       17.2455321628        8.7465071580
  C        46.1483743791       26.6349352932        8.7187115720
  C        46.1601426229       26.6539887482       11.5283488309
  C        14.0471798282       17.8327221433       13.7037515957
  C        15.3692851666       17.9103546566       13.0145765433
  C        15.6407097299       18.9254996461       12.0848793058
  C        16.8700793415       18.9660199800       11.4305928287
  C        17.8568333826       17.9906521557       11.6796165783
  C        17.5923372819       17.0047271313       12.6478134085
  C        16.3648559723       16.9636488043       13.3056199739
  C        19.1246191485       17.9691043238       10.9101142747
  C        19.1001697968       17.9427916380        9.4885261349
  C        17.8803952536       17.8271803143        8.7488403795
  C        28.8057523571       14.0900772708        2.3954064352
  C        28.1942797261       12.9162636883        3.0825547433
  C        28.9169341565       12.1791760085        4.0324294751
  C        28.3190291405       11.1028625419        4.6827864057
  C        26.9844756876       10.7410583525        4.4088178961
  C        26.2839209422       11.4586584176        3.4226101655
  C        26.8797873073       12.5344729004        2.7695380315
  C        26.3170024193        9.6610101486        5.1705975447
  C        26.3089067548        9.6861076714        6.5916787452
  C        26.8141016918       10.7988668299        7.3364635649
  C        32.1798921699       21.2379191296        2.1475647841
  C        32.7762468625       22.4039584651        2.8650106105
  C        32.0307069972       23.0851094584        3.8391743933
  C        32.6047357152       24.1216773485        4.5683681404
  C        33.9406908065       24.5056000301        4.3430182423
  C        34.6690722715       23.8441097493        3.3364759017
  C        34.0971296600       22.8015731746        2.6098704450
  C        34.5726891537       25.5788862132        5.1434247375
  C        34.5673457205       25.5482231232        6.5648641337
  C        34.0579411589       24.4330270570        7.3026589937
  C        25.7018917162        8.6076453557        7.3118328288
  C        25.6785149883        8.6106295376        4.4985278692
  C        32.1038877564       21.2271446503       13.8776017767
  C        32.6986973079       22.3742642662       13.1301033080
  C        31.9692664459       23.0285982288       12.1254885355
  C        32.5526977225       24.0564688696       11.3883988532
  C        33.8793937760       24.4594735515       11.6371424966
  C        34.5921364300       23.8171534121       12.6677472280
  C        34.0134102305       22.7840449017       13.4004102268
  C        34.5216856708       25.5396854052       10.8533398546
  C        34.5408898240       25.5286176746        9.4314951285
  C        34.0448798715       24.4242442246        8.6693002012
  C        40.6236992250       17.1563296828        8.7610414954
  C        40.6019693858       17.1415639467       11.5703176829
  C        28.7468795486       14.0696542364       13.8124202537
  C        28.1425514572       12.9214323271       13.0715463865
  C        28.8836241352       12.2271037172       12.1020933097
  C        28.3068750540       11.1686301177       11.4029376998
  C        26.9748437971       10.7774565957       11.6496859873
  C        26.2522039749       11.4603774761       12.6455580828
  C        26.8262850213       12.5198570643       13.3454219390
  C        26.3350067039        9.6838502080       10.8793624286
  C        26.3198994486        9.6973935696        9.4578772008
  C        26.8172145839       10.8051019106        8.7020801475
  C        18.1354749724        3.1810424442        2.3222307036
  C        17.4061144448        4.2782466833        3.0207778992
  C        16.3903947440        3.9998607990        3.9482922396
  C        15.7426451502        5.0398264971        4.6117822097
  C        16.0945141393        6.3835586787        4.3720888779
  C        17.0838721773        6.6531009393        3.4083021306
  C        17.7329857035        5.6157804159        2.7432516213
  C        15.4702697287        7.4912615917        5.1351737543
  C        15.4855082832        7.4905086003        6.5568873644
  C        16.1870887243        6.4968990545        7.3100448484
  C        42.9458672772       31.8598917043        2.0775840457
  C        43.6464345851       30.7723051131        2.8209620621
  C        44.5925972593       31.0935714809        3.8063756963
  C        45.1982695497       30.0878770174        4.5537478645
  C        44.8709479707       28.7350908307        4.3389646013
  C        43.9446416654       28.4207879901        3.3262567249
  C        43.3358987590       29.4260474476        2.5785075121
  C        45.4877176525       27.6554896384        5.1419400304
  C        45.4907691346       27.6806321224        6.5635811029
  C        44.8050415543       28.6894849942        7.3104300076
  C        14.8566716769        8.5630747141        7.2692508483
  C        14.8749627144        8.5630134797        4.4565812458
  C        42.9464935971       31.9612924675       13.8035560053
  C        43.6914656292       30.8849740868       13.0897266371
  C        44.6563071597       31.1905336449       12.1175171174
  C        45.2775183613       30.1708151835       11.3995686249
  C        44.9532270144       28.8204934769       11.6366452996
  C        44.0195143850       28.5231716008       12.6473751521
  C        43.3916096726       29.5400490517       13.3598050666
  C        45.5612695662       27.7226813471       10.8508581599
  C        45.5307737153       27.7161811914        9.4294823118
  C        44.8262121132       28.7077766582        8.6766622493
  C        35.1487886423       26.6201836683        8.7274156284
  C        35.1294542182       26.5997396425       11.5369128486
  C        18.1486354129        3.2470092573       13.7014597519
  C        17.4300579705        4.3438335153       12.9922140767
  C        16.4148094258        4.0525950859       12.0686649620
  C        15.7665406158        5.0832553662       11.3932889487
  C        16.1213022686        6.4284796330       11.6159452893
  C        17.1126921084        6.7118166150       12.5732047705
  C        17.7603369249        5.6828927253       13.2529710680
  C        15.4908356576        7.5241711736       10.8434815991
  C        15.4966678963        7.5074853128        9.4223501225
  C        16.1933343775        6.5057185003        8.6756512777
  H        10.6725984316       12.4654517955       11.8997824628
  H        11.6948879527       10.5506603511       10.6579117089
  H        15.3923377488       11.1693211804       12.7664460321
  H        14.3518501529       13.0721218468       14.0116001616
  H        13.3764457215       11.6312291380        9.1961811785
  H        50.3046598703       22.7164092646       11.9432523583
  H        49.3074408829       24.6071735835       10.6559019590
  H        45.6438861432       24.1657578720       12.8662941436
  H        46.6621669930       22.2841903202       14.1617184337
  H        47.6127357205       23.5677408805        9.2371156849
  H        14.8725640079        8.5884719244       12.6033980387
  H        50.2840658000       22.6994753406        4.0696918609
  H        49.2641168063       24.5717316675        5.3692333823
  H        45.6115652404       24.1121469796        3.1435278312
  H        46.6555262732       22.2570244152        1.8302985299
  H        47.5934618268       23.5457875780        6.7982272171
  H        40.6616185267       17.1495387800        3.4306658441
  H        48.6870463860       14.0947504534       15.7952854951
  H        10.6813336683       12.4665412249        4.0983055288
  H        11.6896150632       10.5246020777        5.3019940778
  H        15.3936476846       11.1590383573        3.2107717392
  H        14.3651623010       13.0874871347        1.9955460340
  H        13.3759846438       11.6221580011        6.7581583327
  H        47.9302329341       14.2178638094        1.7160941351
  H        47.7796679841       14.3724769193       14.4902880749
  H        49.0855367567       18.5546432392        2.8715237347
  H        10.4163908489       14.1341115933        0.0042117211
  H        24.4884128603        3.0245648694       11.9162438101
  H        25.6362379127        4.8800111086       10.6918864599
  H        23.2655842375        7.7536074438       12.8415784908
  H        22.1357946581        5.8883199540       14.0674726448
  H        23.8244956097        5.7870838632        9.2648732604
  H        36.3825527611       32.1820016969       11.9535608242
  H        35.2644672979       30.3542315611       10.6728496178
  H        37.5215930451       27.4363696195       12.8850613194
  H        38.6205401675       29.2769069106       14.1735518731
  H        37.0423155369       29.4383524952        9.2643215266
  H        25.7622937518        8.6041921222       12.6462720397
  H        36.4592545677       32.2366274793        4.1206752975
  H        35.3520590739       30.4144964976        5.4147233627
  H        37.5319154155       27.4853125140        3.1394497533
  H        38.6142131131       29.3191214219        1.8335329553
  H        37.0608817604       29.4577242925        6.8259039133
  H        46.1098148279       26.5892745120        3.3882738851
  H        44.6683283399       35.1161638176       15.8088166380
  H        24.4358185239        3.0374187070        4.0910779824
  H        25.5686422168        4.8752360857        5.3431318011
  H        23.1674487982        7.7666890642        3.2525191246
  H        22.0465839502        5.9168219849        2.0000161188
  H        23.7970180145        5.7886537419        6.8265713121
  H        44.9541350573       34.3906453525        1.7003185849
  H        44.9020814081       34.2069059539       14.4854595040
  H        40.6660176035       33.2091910153        2.8582142847
  H        23.1506430048        1.9576874768        0.0104733284
  H        25.8518190057       19.6259019189       11.8674716491
  H        23.6825140252       19.6895651942       10.6444963412
  H        22.3319758889       16.2660721777       12.8741197970
  H        24.5059668572       16.2245350536       14.1037485292
  H        23.7319107749       17.7004740573        9.2351597140
  H        35.1324492395       15.5036564909       11.9203863567
  H        37.2637338342       15.4622434976       10.6308120832
  H        38.7032877159       18.8110315828       12.9159833027
  H        36.5664454860       18.8283066683       14.2186762368
  H        37.2331727909       17.4556381269        9.2417605699
  H        20.3650544175       17.9991063941       12.6636160286
  H        35.2187412821       15.4608516082        4.0700591056
  H        37.3509666735       15.4272578663        5.3773945946
  H        38.7305729292       18.8664316816        3.1940079019
  H        36.5926091984       18.8843187311        1.8897866539
  H        37.2538705522       17.4594831487        6.7965767858
  H        35.1549172960       26.6771071669        3.3960655602
  H        28.5034415188       21.0670612115       15.9534715928
  H        25.7362830776       19.6676509230        4.1260027277
  H        23.5454602050       19.7322964853        5.3322374308
  H        22.3171503386       16.1588728237        3.2811948884
  H        24.5028593033       16.1192114316        2.0622697705
  H        23.7045602598       17.6726031390        6.7978793095
  H        29.0132896954       21.7142630206        1.7556426899
  H        29.1798481932       21.7274767131       14.6241495835
  H        32.1346558377       18.5772773500        2.9686065352
  H        27.3757954116       19.0189713927        0.0792485288
  H        14.8456213060       19.6465653245        4.1485842803
  H        17.0074469989       19.6947695033        5.3923368197
  H        18.3050898491       16.1926854553        3.2592990675
  H        16.1389938892       16.1599036327        2.0154143962
  H        16.9242514784       17.6964321597        6.8566568686
  H        46.0918359915       15.4587870009        4.0874675914
  H        43.9693791481       15.4235213791        5.4019312950
  H        42.5700195388       18.8518024233        3.2122587354
  H        44.6924415979       18.8617412052        1.8882475526
  H        44.0343997078       17.3732397446        6.8517036781
  H        20.2895766650       17.9290718066        3.4264915738
  H        46.0372706218       15.3936474623       12.0253920315
  H        43.9043295164       15.3441576380       10.7304197226
  H        42.5220690140       18.7985271964       12.8883610849
  H        44.6618911905       18.8351038926       14.1827581070
  H        44.0150437248       17.3438058659        9.2918550638
  H        46.1985955641       26.6808495120       12.6157428550
  H        52.7367861035       21.0644712177        0.1995395288
  H        14.8781991923       19.6767519040       11.8913113615
  H        17.0786630771       19.7564197856       10.7127559186
  H        18.3450976911       16.2451734832       12.8487385760
  H        16.1463451954       16.1891139527       14.0367866979
  H        16.9479379476       17.7153713943        9.2939215157
  H        52.3334241459       21.6771136984       14.2748696655
  H        52.0139516636       21.7018470096        1.5034175434
  H        49.0735975259       18.6025245693       13.1950698879
  H        13.2474054300       19.0158899239       15.9722239360
  H        29.9444374113       12.4632161118        4.2484036724
  H        28.8815179658       10.5297217706        5.4166577270
  H        25.2528374821       11.1888303879        3.2035686468
  H        26.3371102299       13.1096541159        2.0233388550
  H        27.1733121348       11.6685145906        6.7946063396
  H        31.0041371978       22.7759002905        4.0182346060
  H        32.0221105988       24.6492411372        5.3203696272
  H        35.7028331709       24.1323039331        3.1569126576
  H        34.6644738986       22.2647179224        1.8530258128
  H        33.6989392750       23.5653406460        6.7562720824
  H        25.7054311574        8.5917475397        3.4104418095
  H        30.9477219281       22.7124224859       11.9280053206
  H        31.9795647022       24.5656925429       10.6166714741
  H        35.6193902705       24.1167224546       12.8649765128
  H        34.5685773580       22.2659673903       14.1789601853
  H        33.6764992261       23.5495151237        9.1977116560
  H        40.5936559067       17.0924574234       12.6574986608
  H        32.5158433927       14.1565674238        0.2544439840
  H        29.9151076349       12.5246572128       11.9217414632
  H        28.8893947584       10.6239215290       10.6628031432
  H        25.2217306450       11.1714130128       12.8420301882
  H        26.2650721119       13.0629005714       14.1022323695
  H        27.1771040225       11.6796940789        9.2357827923
  H        33.2980743558       14.1867123978       14.4316874659
  H        33.4091389551       14.3925455977        1.6125333603
  H        32.0976741216       18.5565903980       13.1760675925
  H        30.2246068452       14.1939643827        0.0778432606
  H        16.1183291241        2.9633539782        4.1346736897
  H        14.9531617750        4.8204351556        5.3274052050
  H        17.3662387040        7.6859862610        3.2151505128
  H        18.5149651570        5.8184580885        2.0153516103
  H        16.7535711342        5.7395081425        6.7765391851
  H        44.8292637476       32.1406063066        3.9802700220
  H        45.9386658037       30.3411779810        5.3093186069
  H        43.6816373878       27.3787482134        3.1564824151
  H        42.5988370980       29.1911707798        1.8141451608
  H        44.2311622402       29.4384849986        6.7722678277
  H        14.8512000290        8.5462700893        3.3683598603
  H        44.9004648527       32.2331174922       11.9262903636
  H        46.0246184638       30.4120638389       10.6465277132
  H        43.7620275402       27.4835304506       12.8387315327
  H        42.6450390287       29.3172594567       14.1181904441
  H        44.2690938751       29.4716202667        9.2113289211
  H        35.0837911519       26.6139191026       12.6242337594
  H        36.6051053084       35.1340270969        0.1858188599
  H        16.1436200806        3.0130331357       11.8990147313
  H        14.9741653423        4.8564316572       10.6832525338
  H        17.3962636021        7.7472732077       12.7500517151
  H        18.5432397230        5.8933501091       13.9777024657
  H        16.7647464187        5.7554565495        9.2140800170
  H        36.2783273870       34.4827244527       14.2678785766
  H        36.3807444878       34.2092998165        1.5049181171
  H        40.5804973166       33.2027486528       13.1481929675
  H        17.4709250295        1.9477627433       15.9689978187
  H        28.8020067009       18.9889125465        4.3701934995
  H        29.7903788136       19.7444164655       11.5980786275
  H        32.3260998154       16.2195588587       11.7253011401
  H        31.0239788547       15.3962537525        4.3751108035
  H        28.3955253100       17.4634279803        6.9841557905
  H        29.2851518522       15.1924217790        6.6036531364
  H        31.9438092416       20.1442461834        9.3586666479
  H        32.9503708617       17.7596731359        9.1769918687
  H        28.4261543599       20.1978202322        8.5379513892
  H        18.8533420488        0.8689663777        4.3403685250
  H        40.5277441874       35.2288953071       11.9469112697
  H        42.3244384966       34.4193423123       11.5850045317
  H        22.0876886375        0.6919062009        4.3568612903
  H        11.5974800753       18.7125621613        4.3858173639
  H        52.2654873308       18.4255035304       11.6695851343
  H        49.2552262034       16.4750822959       11.5784389327
  H        10.1502981954       15.7985517055        4.2979288236
  H        50.8497847867       17.6899458586       11.9464278411
  H        10.0463914888       17.3949233079        4.0564707485
  H        20.2147155838        0.0022222337        4.0470842121
  H        39.1834094368       36.1241919152       11.6813074183
 Ni        31.0267768852       17.9202532134       10.6602635766
 Ni        31.2415973104       16.2732914257        8.1592914563
 Ni        30.0994786770       19.0395360360        7.7488155164
 Ni        30.1414919385       17.3069146504        5.3299840857
  O        10.6500926147       14.3649098037       13.4807657479
  O        12.6132964641       14.6574633349       14.5788345410
  O        49.1481479022       16.8455235186       15.9848516053
  O        50.3194589866       20.8771755573       13.5699143226
  O        48.3480966207       20.5929001513       14.6612970806
  O        11.0528383163       17.0514032489       14.4950731089
  O        50.3213386998       20.8816400285        2.4109493497
  O        48.3467746690       20.5864993796        1.3319431533
  O        49.5442232938       18.2486537361        2.0724300097