     586
 i =      209, E =     -4847.8409907344
  C        11.8586950281       14.0536451529       13.7363978657
  C        12.4562288288       12.8906861912       13.0180219529
  C        11.7044625322       12.1716665137       12.0765039945
  C        12.2807757009       11.1093751926       11.3842161036
  C        13.6213629219       10.7396327486       11.6118966908
  C        14.3546245677       11.4433147283       12.5851991412
  C        13.7817949077       12.5083826623       13.2766214211
  C        14.2608829708        9.6489199957       10.8385519415
  C        14.2563456227        9.6568856708        9.4168504416
  C        13.7432068809       10.7590311670        8.6629543516
  C        49.1267901935       21.2332098293       13.8744757391
  C        48.5500492100       22.4011753724       13.1474176935
  C        49.3001633277       23.0686629394       12.1666045486
  C        48.7332205884       24.1078133916       11.4334343244
  C        47.4025858582       24.5092214041       11.6618693086
  C        46.6715169473       23.8601460098       12.6751519281
  C        47.2339799548       22.8152340080       13.4044757792
  C        46.7723275918       25.5869116251       10.8646013326
  C        46.7613901392       25.5573527462        9.4428397729
  C        47.2613621859       24.4422698863        8.6993567804
  C        14.8603306059        8.5705638159        8.7035999729
  C        14.8915138702        8.5969044982       11.5152207629
  C        49.1132464403       21.2034046829        2.1504862198
  C        48.5278688297       22.3647420085        2.8777053999
  C        49.2671569860       23.0256390796        3.8704414480
  C        48.6908063194       24.0602007948        4.6018680539
  C        47.3603416631       24.4568195582        4.3637187923
  C        46.6398367860       23.8117114232        3.3404030887
  C        47.2134152666       22.7757927500        2.6086660505
  C        46.7218719462       25.5317839276        5.1547243583
  C        46.7336369753       25.5281782585        6.5764244344
  C        47.2490854048       24.4289687080        7.3328058029
  C        40.6358744805       17.1647070665        7.3223140499
  C        40.6548084636       17.1790382896        4.5132236035
  C        11.8830552316       14.0866143010        2.2905926090
  C        12.4724899508       12.9108610121        2.9949557699
  C        11.7149062340       12.1774934804        3.9208655890
  C        12.2815083532       11.0950284742        4.5892796529
  C        13.6203880012       10.7214565381        4.3576044313
  C        14.3584545016       11.4372333599        3.3970384037
  C        13.7930178870       12.5184146289        2.7243566486
  C        14.2539913525        9.6246731614        5.1279950564
  C        14.2527100410        9.6446343840        6.5498358941
  C        13.7427522708       10.7535440495        7.2969085286
  C        22.5123047291        3.2442912928       13.7485172679
  C        23.2287210292        4.3495635708       13.0500338175
  C        24.2256490752        4.0685844849       12.1041221086
  C        24.8544350119        5.1075656290       11.4228397876
  C        24.5022178640        6.4497084526       11.6676724533
  C        23.5336002859        6.7223381090       12.6507108619
  C        22.8999840702        5.6850096821       13.3301792285
  C        25.1100181238        7.5548815096       10.8915901256
  C        25.0795041535        7.5477421124        9.4702295244
  C        24.3702081583        6.5520164673        8.7258788331
  C        38.3039135496       31.9276403010       13.8424826368
  C        37.5792731324       30.8354119493       13.1311946455
  C        36.6230765256       31.1339088490       12.1484529613
  C        36.0122136382       30.1099664783       11.4293818587
  C        36.3421236536       28.7618579452       11.6713867391
  C        37.2682631211       28.4709042396       12.6908144532
  C        37.8835431283       29.4934370041       13.4082794043
  C        35.7470454971       27.6663065259       10.8729350729
  C        35.7827172435       27.6806916754        9.4515599692
  C        36.4858082349       28.6855039138        8.7148233188
  C        25.7062002606        8.6142991874        8.7486534884
  C        25.7111361589        8.6286311555       11.5608711364
  C        38.3289497723       31.9626273689        2.1599918779
  C        37.6085456816       30.8881454755        2.8995077005
  C        36.6838153388       31.1935097523        3.9096376523
  C        36.0780251125       30.1720896132        4.6383981351
  C        36.3832811293       28.8209489802        4.3796722335
  C        37.2843516195       28.5257186029        3.3385735208
  C        37.8923169985       29.5434095050        2.6112441573
  C        35.7824588244       27.7184432795        5.1632325353
  C        35.8005391698       27.7075066852        6.5848726683
  C        36.4941490850       28.6985490365        7.3482645166
  C        46.1356152964       26.6208089914        7.2865516000
  C        46.0878762701       26.5801028446        4.4786588691
  C        22.4591144940        3.2557035059        2.2633247351
  C        23.1497636557        4.3652597974        2.9883635382
  C        24.1499323580        4.0803539882        3.9314159704
  C        24.7750144337        5.1113269325        4.6286237661
  C        24.4201079570        6.4567338534        4.4049526942
  C        23.4425515645        6.7349687648        3.4309273459
  C        22.8126473026        5.7041126727        2.7344929280
  C        25.0514395300        7.5547913290        5.1784436313
  C        25.0499174793        7.5471335863        6.6012146743
  C        24.3545790007        6.5526315990        7.3593442140
  C        26.6213519057       17.8607757796       13.7836458214
  C        25.3122348820       17.9018883371       13.0588419776
  C        25.0525144058       18.8996069345       12.1059039571
  C        23.8411386354       18.9189680055       11.4167106803
  C        22.8520382935       17.9437071529       11.6592560179
  C        23.1080646162       16.9686210183       12.6415345644
  C        24.3218768604       16.9440832387       13.3278618866
  C        21.5787611635       17.9296659629       10.8943989317
  C        21.5786902594       17.9074117343        9.4719051115
  C        22.7842892515       17.7825112192        8.7115144704
  C        34.4215291920       17.2373831938       13.8693763878
  C        35.7107069562       17.1951464008       13.1229582685
  C        35.9182375019       16.2350690930       12.1212274617
  C        37.1081248597       16.2189735494       11.4002194724
  C        38.1197083085       17.1633258081       11.6603539677
  C        37.9135055493       18.1059766493       12.6849389179
  C        36.7217054925       18.1257636165       13.4049699751
  C        39.3785108392       17.1703142172       10.8832244943
  C        39.3767011656       17.1922697224        9.4621236571
  C        38.1710970519       17.3269882799        8.7037856842
  C        20.3321660864       17.9258030435        8.7631328734
  C        20.3536638144       17.9337454518       11.5763622688
  C        34.4735483154       17.2494771296        2.1836106396
  C        35.7765511878       17.1763825800        2.9079913231
  C        35.9925741485       16.1978941701        3.8902248884
  C        37.1777329915       16.1867591782        4.6206142680
  C        38.1767191829       17.1512299619        4.3838769001
  C        37.9679880579       18.1027849085        3.3686741320
  C        36.7794597431       18.1208685471        2.6439942406
  C        39.4241404146       17.1741797335        5.1777772342
  C        39.3998327522       17.1933981748        6.5980737196
  C        38.1823799791       17.3239187545        7.3375524418
  C        35.1773570274       26.6239932820        7.2879638683
  C        35.1909927576       26.6493503658        4.4791051308
  C        26.5717255012       17.8241133530        2.3323946446
  C        25.2573421161       17.8718668332        3.0380110329
  C        24.9921188303       18.8767347785        3.9805722164
  C        23.7744696854       18.9013575430        4.6544699084
  C        22.7921539695       17.9213168667        4.4085636772
  C        23.0508012299       16.9422510696        3.4321959287
  C        24.2694779802       16.9152944441        2.7571491320
  C        21.5288416507       17.9018717269        5.1818099662
  C        21.5534120017       17.8916686418        6.6033092296
  C        22.7720570262       17.7748387600        7.3451683473
  C        14.0468149530       17.8286623375        2.2941216944
  C        15.3511935899       17.8850341350        3.0198672485
  C        15.6074901885       18.8865985039        3.9693256569
  C        16.8163823617       18.9065600119        4.6624946957
  C        17.8034868833       17.9278326298        4.4284332883
  C        17.5519257147       16.9506045173        3.4468193622
  C        16.3424597742       16.9259692996        2.7553123190
  C        19.0727020164       17.9099722384        5.1974118202
  C        19.0718418385       17.9058515328        6.6199580884
  C        17.8649254671       17.8065222489        7.3812945732
  C        46.8069667488       17.2197319936        2.1639549444
  C        45.5188348203       17.1629486175        2.9106173374
  C        45.3127304536       16.1913970599        3.9019339192
  C        44.1321295985       16.1811742958        4.6394517033
  C        43.1297316211       17.1426146933        4.4061888628
  C        43.3330848067       18.0933682332        3.3881339893
  C        44.5142318840       18.1077288932        2.6519732255
  C        41.8776384547       17.1628871294        5.1938480351
  C        41.8831007616       17.1685123726        6.6153473301
  C        43.0916755149       17.2589139337        7.3754204645
  C        20.3187560729       17.9165756353        7.3282527973
  C        20.2968459408       17.8910406642        4.5151219041
  C        46.7854222067       17.2318109059       13.8841081704
  C        45.4816965113       17.1300093995       13.1697174427
  C        45.2601484133       16.1372629825       12.2033563633
  C        44.0718800570       16.1184498721       11.4772047183
  C        43.0762528734       17.0892980001       11.7006708222
  C        43.2873209327       18.0502446997       12.7069537549
  C        44.4766466117       18.0757292640       13.4277800140
  C        41.8317189608       17.1235886708       10.9020481470
  C        41.8597155435       17.1468725606        9.4813861653
  C        43.0804838194       17.2457710730        8.7420040587
  C        46.1533649407       26.6372278381        8.7210948691
  C        46.1622868477       26.6559628298       11.5307416689
  C        14.0458332373       17.8315756854       13.7036030899
  C        15.3672054144       17.9053306839       13.0133218548
  C        15.6412117437       18.9195625183       12.0836104800
  C        16.8704487358       18.9558366089       11.4290256787
  C        17.8536520950       17.9771004169       11.6783149102
  C        17.5865798109       16.9920420092       12.6464821576
  C        16.3593293885       16.9551626691       13.3044511906
  C        19.1210834062       17.9509261392       10.9093973854
  C        19.0970305048       17.9257406403        9.4879251793
  C        17.8772679461       17.8155260865        8.7472764002
  C        28.8037929526       14.0902631913        2.3956676030
  C        28.1879437648       12.9191864849        3.0857120853
  C        28.9226731978       12.1512499475        4.0013542180
  C        28.3221875037       11.0771696575        4.6535318214
  C        26.9736190312       10.7465009119        4.4121277492
  C        26.2585637208       11.4955080308        3.4609103004
  C        26.8568553205       12.5702100701        2.8076708153
  C        26.3076180004        9.6645395737        5.1734448787
  C        26.3077321942        9.6860041710        6.5941956989
  C        26.8281748379       10.7921553300        7.3386381347
  C        32.1832819314       21.2377073954        2.1456652813
  C        32.7798478361       22.4039586913        2.8624511182
  C        32.0406038605       23.0768704508        3.8471624468
  C        32.6174747059       24.1123715447        4.5756448655
  C        33.9494938756       24.5033808325        4.3388431690
  C        34.6707703079       23.8501153963        3.3219808896
  C        34.0963953128       22.8084978342        2.5961947111
  C        34.5842290890       25.5752280155        5.1383914626
  C        34.5867902545       25.5400180502        6.5595356505
  C        34.0894529478       24.4186021645        7.2958294594
  C        25.6952772069        8.6107050410        7.3142590478
  C        25.6639640474        8.6180144331        4.5009619674
  C        32.1124534741       21.2130724624       13.8588399442
  C        32.7135010248       22.3488865954       13.1001208902
  C        31.9886806424       23.0046598604       12.0936590416
  C        32.5743336290       24.0366972603       11.3641336506
  C        33.8984794700       24.4421403082       11.6231013889
  C        34.6076343295       23.7958478716       12.6531219179
  C        34.0264696737       22.7585528960       13.3776039989
  C        34.5418506128       25.5263004319       10.8460880136
  C        34.5655929110       25.5155974651        9.4247235589
  C        34.0793346985       24.4071209364        8.6622783513
  C        40.6236972264       17.1588971777        8.7560164818
  C        40.5999840497       17.1523220148       11.5654932201
  C        28.7461369894       14.0714375674       13.8154012673
  C        28.1372659276       12.9232692860       13.0751013464
  C        28.8889662970       12.2004189430       12.1355987185
  C        28.3108127378       11.1439791492       11.4343231802
  C        26.9659513446       10.7818807095       11.6519127230
  C        26.2312037466       11.4918037788       12.6191593140
  C        26.8073657056       12.5500148303       13.3200022445
  C        26.3265707456        9.6875926680       10.8813025961
  C        26.3188716882        9.6977204421        9.4600371329
  C        26.8312570878       10.7989286022        8.7044668027
  C        18.1353443120        3.1809609775        2.3222287454
  C        17.4060842446        4.2782095910        3.0208410388
  C        16.3906542735        3.9998558806        3.9486785272
  C        15.7429608986        5.0398467638        4.6121858632
  C        16.0946462287        6.3835942106        4.3722727523
  C        17.0837002938        6.6530928803        3.4081517718
  C        17.7327468726        5.6157461153        2.7430742641
  C        15.4703733253        7.4913074470        5.1353135561
  C        15.4856306214        7.4905888074        6.5570251664
  C        16.1871465268        6.4969567663        7.3102142722
  C        42.9459259586       31.8594628090        2.0780033507
  C        43.6462637241       30.7718641802        2.8219658162
  C        44.5919082117       31.0931546710        3.8079524763
  C        45.1976307434       30.0875842094        4.5555590096
  C        44.8711321712       28.7345234737        4.3407297461
  C        43.9452119680       28.4202130157        3.3275899173
  C        43.3363696193       29.4253774404        2.5796078601
  C        45.4886829291       27.6552281872        5.1439365933
  C        45.4929111174       27.6809298192        6.5656250390
  C        44.8057699704       28.6889459892        7.3122418534
  C        14.8566693894        8.5630913830        7.2693764722
  C        14.8751387298        8.5631068473        4.4567080340
  C        42.9465124344       31.9614001832       13.8038330773
  C        43.6916338892       30.8853393644       13.0903188944
  C        44.6563334638       31.1912465093       12.1181028136
  C        45.2778342209       30.1716460964       11.4003967992
  C        44.9539495610       28.8213238086       11.6379323638
  C        44.0203144172       28.5236684860       12.6485806594
  C        43.3920517513       29.5404384955       13.3607433505
  C        45.5630019307       27.7239542279       10.8526762452
  C        45.5333754292       27.7173690016        9.4313820475
  C        44.8270067078       28.7075662974        8.6784284308
  C        35.1674631492       26.6110445502        8.7223847649
  C        35.1438620805       26.5884583158       11.5316161687
  C        18.1484149491        3.2468589014       13.7015143738
  C        17.4298047114        4.3436896868       12.9922654736
  C        16.4148256967        4.0523804366       12.0684507041
  C        15.7664755738        5.0830081984       11.3930950277
  C        16.1208356683        6.4282863028       11.6160942345
  C        17.1119102029        6.7116775492       12.5736759877
  C        17.7596255895        5.6827819154       13.2534226032
  C        15.4904027782        7.5239962461       10.8436376432
  C        15.4964547492        7.5074158714        9.4225041767
  C        16.1932687359        6.5057368091        8.6758191942
  H        10.6723079118       12.4657759941       11.8995778273
  H        11.6943995323       10.5507825362       10.6578291756
  H        15.3916764294       11.1687468100       12.7668499216
  H        14.3513125270       13.0717616358       14.0118960001
  H        13.3760857682       11.6310970496        9.1962885560
  H        50.3229505716       22.7487923783       11.9820259470
  H        49.3197409243       24.6232487153       10.6760028901
  H        45.6419182206       24.1606685529       12.8581253537
  H        46.6628882641       22.2897948760       14.1663668488
  H        47.6298573331       23.5758847242        9.2410594798
  H        14.8717067179        8.5881301302       12.6035253673
  H        50.2872663745       22.7029304477        4.0652260859
  H        49.2692239773       24.5758236015        5.3652354766
  H        45.6103731078       24.1088065009        3.1514391728
  H        46.6525463539       22.2534772872        1.8372470987
  H        47.6078297520       23.5518395546        6.8019021542
  H        40.6616398391       17.1395477941        3.4256575616
  H        48.6869513959       14.0949986665       15.7948845902
  H        10.6813509885       12.4664039669        4.0980652145
  H        11.6896295437       10.5244471201        5.3017581949
  H        15.3939493793       11.1594875963        3.2112489385
  H        14.3653928846       13.0879606204        1.9959892488
  H        13.3758854653       11.6221241415        6.7582414801
  H        47.9302238033       14.2182791170        1.7159631873
  H        47.7799953450       14.3734141424       14.4898934490
  H        49.0841200736       18.5526040285        2.8725372764
  H        10.4160306669       14.1342918672        0.0037856435
  H        24.4851366113        3.0296937232       11.9129180230
  H        25.6273084208        4.8894113017       10.6890043579
  H        23.2541769409        7.7555652945       12.8461281225
  H        22.1297238098        5.8859631212       14.0707780994
  H        23.8071806873        5.7977119625        9.2677668351
  H        36.3833032982       32.1759030756       11.9500253360
  H        35.2704842830       30.3454664406       10.6693430129
  H        37.5307374192       27.4330801342       12.8854706450
  H        38.6244330910       29.2760404860       14.1739622977
  H        37.0493589130       29.4361790208        9.2612481677
  H        25.7448957783        8.6141609537       12.6487655276
  H        36.4614824976       32.2369714766        4.1212233912
  H        35.3557852931       30.4131909846        5.4151988309
  H        37.5307375353       27.4862406264        3.1324937651
  H        38.6114136818       29.3214531243        1.8266056288
  H        37.0651180192       29.4587678410        6.8230326942
  H        46.1092080139       26.5874055410        3.3906213769
  H        44.6681812734       35.1160993305       15.8087585517
  H        24.4284023850        3.0424361342        4.0992986311
  H        25.5547099081        4.8835674237        5.3523286603
  H        23.1567997067        7.7690883667        3.2494127873
  H        22.0421032061        5.9157073396        1.9967460885
  H        23.7787614020        5.7994519176        6.8293343210
  H        44.9535661832       34.3901921610        1.7001576028
  H        44.9014234966       34.2066384048       14.4854841891
  H        40.6658489324       33.2088247694        2.8580162075
  H        23.1504515382        1.9575716664        0.0106955124
  H        25.8136079064       19.6560723395       11.9262549031
  H        23.6437103830       19.6999121468       10.6852620515
  H        22.3562345381       16.2069136931       12.8381150447
  H        24.5299051669       16.1779207082       14.0712209263
  H        23.7244441782       17.6607426917        9.2417916079
  H        35.1338044337       15.5112338891       11.9147921269
  H        37.2692325900       15.4662995601       10.6316467410
  H        38.6867449092       18.8441859836       12.8873966674
  H        36.5441925353       18.8657523335       14.1818235788
  H        37.2328028399       17.4596170737        9.2347580072
  H        20.3604726225       17.9749208032       12.6641836984
  H        35.2156778914       15.4580575291        4.0712108307
  H        37.3452256045       15.4258008884        5.3798629045
  H        38.7343733044       18.8521655368        3.1816377972
  H        36.5948665344       18.8728593604        1.8804161466
  H        37.2529022554       17.4537965725        6.7909734930
  H        35.1553785192       26.6804633076        3.3917821014
  H        28.5013942489       21.0826599788       15.8787443726
  H        25.7517704959       19.6323970417        4.1663891153
  H        23.5685630034       19.6846615468        5.3807673267
  H        22.2999818130       16.1795783462        3.2358572405
  H        24.4852200101       16.1480298450        2.0174064376
  H        23.7031936917       17.6478858494        6.8008268659
  H        28.9965675887       21.7281745663        1.7514200329
  H        29.1966133120       21.7200382212       14.5647569860
  H        32.1477431229       18.5865418258        2.9572342522
  H        27.4090491095       19.0743764014        0.0831763395
  H        14.8488257496       19.6451210165        4.1488248024
  H        17.0111127453       19.6895903992        5.3922066623
  H        18.3034361158       16.1870016977        3.2568005492
  H        16.1369347616       16.1580703074        2.0133047716
  H        16.9224179604       17.6906889856        6.8540921210
  H        46.0945062570       15.4585266756        4.0871627865
  H        43.9710027277       15.4206593952        5.4002913415
  H        42.5660852040       18.8430191290        3.2051543653
  H        44.6895314048       18.8558254265        1.8824962091
  H        44.0344030118       17.3694058683        6.8472306409
  H        20.2908038384       17.9220212143        3.4270156794
  H        46.0348520669       15.3956156401       12.0223165011
  H        43.9025991234       15.3489107210       10.7271785446
  H        42.5229904826       18.8034863923       12.8863313882
  H        44.6618908639       18.8373532629       14.1811549028
  H        44.0148374738       17.3447099639        9.2869528382
  H        46.1990305977       26.6824236781       12.6181911813
  H        52.7411431691       21.0626028002        0.1997838897
  H        14.8809553310       19.6732325130       11.8905241314
  H        17.0817752782       19.7453525291       10.7110286457
  H        18.3369697623       16.2300617987       12.8470024550
  H        16.1379911089       16.1816092295       14.0357554327
  H        16.9439555054       17.7065235815        9.2914624904
  H        52.3223604571       21.6732324569       14.2891992859
  H        52.0130730212       21.7018983676        1.5007430685
  H        49.0674021902       18.6077383644       13.1989573209
  H        13.2476285753       19.0162154612       15.9721870165
  H        29.9639695513       12.4068071308        4.1842890604
  H        28.8930451129       10.4794525558        5.3609659214
  H        25.2161604697       11.2497612316        3.2687395418
  H        26.3043302392       13.1691320694        2.0877563722
  H        27.1983308644       11.6564740954        6.7954900148
  H        31.0171157585       22.7621891349        4.0350301455
  H        32.0403177975       24.6335734346        5.3362373857
  H        35.7014111213       24.1438043759        3.1335717961
  H        34.6583795079       22.2775964523        1.8311934850
  H        33.7382316343       23.5488228332        6.7479365235
  H        25.6861312098        8.6023994271        3.4127214918
  H        30.9680142547       22.6889298612       11.8906945848
  H        32.0048411470       24.5484378529       10.5913792721
  H        35.6335369699       24.0958250677       12.8566413717
  H        34.5778238802       22.2378432478       14.1569606454
  H        33.7217820958       23.5280034117        9.1907435029
  H        40.5901104006       17.1069780398       12.6528440920
  H        32.5155302218       14.1543228808        0.2509395714
  H        29.9321924022       12.4728917879       11.9862042474
  H        28.9005332141       10.5768237680       10.7170549970
  H        25.1909764542       11.2239797299       12.7929774518
  H        26.2378498160       13.1135341293       14.0553931370
  H        27.2020680605       11.6686815663        9.2389158649
  H        33.3023561641       14.1991375111       14.4406116614
  H        33.4079291697       14.4036141583        1.6094276794
  H        32.0848955984       18.5210950745       13.0960513906
  H        30.2286023656       14.1935364620        0.0789854368
  H        16.1187464171        2.9633444376        4.1352700454
  H        14.9536823265        4.8204460140        5.3280299551
  H        17.3658648553        7.6859923277        3.2147766681
  H        18.5144731188        5.8183876848        2.0148925526
  H        16.7536953768        5.7395949654        6.7767402684
  H        44.8282874219       32.1402182521        3.9821051762
  H        45.9376053502       30.3412676231        5.3114210838
  H        43.6824695089       27.3781559721        3.1574647636
  H        42.5996824419       29.1900198589        1.8150183097
  H        44.2303604439       29.4366696283        6.7739338265
  H        14.8513192724        8.5463639692        3.3684873016
  H        44.8999892706       32.2339129769       11.9267216985
  H        46.0248457379       30.4128041295       10.6472410156
  H        43.7632270702       27.4839527513       12.8400631137
  H        42.6454291567       29.3176164995       14.1190599328
  H        44.2684063852       29.4703927733        9.2130036562
  H        35.0954754607       26.6017040779       12.6188552372
  H        36.6049363801       35.1338610190        0.1858738439
  H        16.1439541502        3.0127810282       11.8985032449
  H        14.9742965047        4.8561291587       10.6828551612
  H        17.3950766809        7.7471872198       12.7508738315
  H        18.5422467720        5.8932545229       13.9784544565
  H        16.7646041189        5.7554275397        9.2142631277
  H        36.2781294832       34.4824562870       14.2678681385
  H        36.3804276747       34.2094082368        1.5051203740
  H        40.5802007176       33.2022422819       13.1482669178
  H        17.4706828709        1.9471283673       15.9688873955
  H        28.7807447665       18.9738957255        4.3337429511
  H        29.8377154242       19.8443648580       11.6435474738
  H        32.3727677757       16.2387596047       11.8134601727
  H        30.9983544266       15.3958653175        4.3650230666
  H        28.2968370385       17.3694978423        6.9331208348
  H        29.5266193527       15.0871100149        6.7904543958
  H        31.5710990477       20.2041694008        9.4465509217
  H        33.1511286908       17.7588300693        9.3831688410
  H        28.9691729500       18.0427082064       10.4574260008
  H        18.8531010902        0.8689356018        4.3403525124
  H        40.5278370936       35.2291699979       11.9469980730
  H        42.3237646873       34.4185968517       11.5856243305
  H        22.0877416990        0.6919385836        4.3566820194
  H        11.5968864347       18.7130974852        4.3876555259
  H        52.2649237829       18.4311056615       11.6721586705
  H        49.2552249765       16.4770612149       11.5794563389
  H        10.1504982539       15.7981942620        4.2978263437
  H        50.8500621723       17.6923808790       11.9491933617
  H        10.0462103518       17.3944682245        4.0570704384
  H        20.2142780007        0.0021337305        4.0471548283
  H        39.1834216748       36.1244578010       11.6815703951
 Ni        31.2893453535       18.1600426739       10.9907891319
 Ni        31.4474198573       16.3583563515        8.2430131958
 Ni        29.9266345157       18.9915457631        7.9130517055
 Ni        30.1468959494       17.3474978873        5.3318642387
  O        10.6499227516       14.3651034843       13.4806953889
  O        12.6131844235       14.6574742654       14.5787899994
  O        49.1481486781       16.8458737047       15.9845805426
  O        50.3502796823       20.9359444118       13.6429733706
  O        48.3486014386       20.5934078503       14.6608068269
  O        11.0516281717       17.0538518225       14.4955619758
  O        50.3210902638       20.8816768910        2.4119237658
  O        48.3468004761       20.5868121048        1.3322430002
  O        49.5438837318       18.2484657209        2.0733440154