     583
 i =      174, E =     -4830.5917215225
  C        11.8583979609       14.0535370885       13.7364973018
  C        12.4558625833       12.8904139631       13.0182736265
  C        11.7042050550       12.1717199926       12.0764246389
  C        12.2805135346       11.1094960669       11.3840098664
  C        13.6209695419       10.7394251745       11.6119505619
  C        14.3540298729       11.4426314695       12.5857732177
  C        13.7811919092       12.5076006516       13.2773350949
  C        14.2605968394        9.6488544939       10.8384983227
  C        14.2560691809        9.6568225219        9.4167872730
  C        13.7426760371       10.7588263685        8.6628573669
  C        49.1266244294       21.2332053513       13.8745558868
  C        48.5498494445       22.4010372691       13.1473670703
  C        49.3000659703       23.0687484355       12.1667748387
  C        48.7331111747       24.1078691531       11.4335767292
  C        47.4023936818       24.5090955309       11.6618718711
  C        46.6711815776       23.8597482751       12.6748745965
  C        47.2336507213       22.8148386330       13.4042134301
  C        46.7722186900       25.5868750521       10.8646448524
  C        46.7613158871       25.5573395581        9.4428838442
  C        47.2611476198       24.4421848356        8.6994139258
  C        14.8602586792        8.5706122028        8.7035267123
  C        14.8914052882        8.5969022290       11.5151293053
  C        49.1129456774       21.2033495048        2.1504302022
  C        48.5275108587       22.3645729954        2.8777352575
  C        49.2669549271       23.0257959265        3.8701518737
  C        48.6905899181       24.0603209913        4.6016220007
  C        47.3599416303       24.4565585442        4.3638238491
  C        46.6392047709       23.8110326671        3.3409378115
  C        47.2127950470       22.7751179086        2.6091832348
  C        46.7215919877       25.5316410569        5.1547978399
  C        46.7334537728       25.5281079807        6.5764954420
  C        47.2488463151       24.4288621675        7.3328604679
  C        40.6246505687       17.1119201823        7.3103805417
  C        40.6419438059       17.1313433569        4.5005586353
  C        11.8827835983       14.0864906006        2.2904238052
  C        12.4720509070       12.9104753180        2.9945431281
  C        11.7145359803       12.1774889107        3.9208034411
  C        12.2810521096       11.0950183584        4.5892899361
  C        13.6197926860       10.7210934776        4.3573909424
  C        14.3576868364       11.4363466766        3.3962825933
  C        13.7923338811       12.5175085552        2.7235159889
  C        14.2534646405        9.6244328715        5.1278785336
  C        14.2522999167        9.6444813071        6.5497256116
  C        13.7421480810       10.7532961735        7.2968081833
  C        22.5126242735        3.2444843846       13.7483009392
  C        23.2290918171        4.3495332451       13.0497825215
  C        24.2268063223        4.0686354669       12.1045884599
  C        24.8556750364        5.1075355654       11.4231889370
  C        24.5027152004        6.4497057630       11.6668783659
  C        23.5333838999        6.7222106717       12.6493296574
  C        22.8998088418        5.6850597473       13.3290902810
  C        25.1097181858        7.5553651359       10.8906328148
  C        25.0790390025        7.5484543674        9.4691887160
  C        24.3729503817        6.5505855594        8.7249112783
  C        38.3023416679       31.9301637073       13.8443958122
  C        37.5715301871       30.8411155183       13.1354817295
  C        36.6103362967       31.1458135734       12.1596120996
  C        35.9916848331       30.1260608975       11.4419184448
  C        36.3197042668       28.7768123010       11.6786526126
  C        37.2513282134       28.4794922355       12.6910129981
  C        37.8739854363       29.4980000259       13.4076477335
  C        35.7158207214       27.6859198514       10.8816476735
  C        35.7448505808       27.7018589538        9.4603281436
  C        36.4511124142       28.7039682500        8.7231598534
  C        25.7028779205        8.6169089688        8.7477689474
  C        25.7104653240        8.6289903013       11.5598173343
  C        38.3287446867       31.9620931969        2.1616243346
  C        37.6066133807       30.8893885470        2.9041754900
  C        36.6772429622       31.1993900173        3.9088677406
  C        36.0656382630       30.1819003542        4.6385962555
  C        36.3690668263       28.8288211615        4.3872733259
  C        37.2765768971       28.5287640504        3.3528916021
  C        37.8902729592       29.5428227415        2.6243757993
  C        35.7587953151       27.7307487558        5.1714373364
  C        35.7669964293       27.7245749698        6.5935409566
  C        36.4614193829       28.7150404643        7.3566655403
  C        46.1356292918       26.6208536322        7.2866117784
  C        46.0876129508       26.5799552971        4.4787150030
  C        22.4597146690        3.2555467049        2.2631862157
  C        23.1513369660        4.3643815562        2.9877373292
  C        24.1525664471        4.0786272278        3.9294697443
  C        24.7787335980        5.1089908135        4.6265407514
  C        24.4237305347        6.4545414125        4.4041241914
  C        23.4452510411        6.7335746685        3.4312270732
  C        22.8143561017        5.7034295885        2.7347657435
  C        25.0550183948        7.5525744753        5.1775263895
  C        25.0518175839        7.5460265840        6.6003129512
  C        24.3581934518        6.5503849312        7.3583133178
  C        26.6200129501       17.8562062799       13.7794807632
  C        25.3198031250       17.8912290614       13.0418207603
  C        25.0663038544       18.8826099836       12.0796750817
  C        23.8529217412       18.9039482799       11.3943572144
  C        22.8573523242       17.9377292589       11.6468236573
  C        23.1108359940       16.9651599015       12.6330503323
  C        24.3252016316       16.9379673983       13.3172594487
  C        21.5822226947       17.9289337659       10.8857798874
  C        21.5813526738       17.9153846028        9.4630924874
  C        22.7859319281       17.7972392857        8.6998638914
  C        34.4243058192       17.2191504055       13.8808905994
  C        35.7194504196       17.1596681802       13.1456543787
  C        35.9116689854       16.2065073296       12.1333807305
  C        37.0970683901       16.1838214003       11.4048592861
  C        38.1201516465       17.1170218808       11.6631399647
  C        37.9298668548       18.0498936154       12.7010041545
  C        36.7440716129       18.0749333584       13.4310865587
  C        39.3737265771       17.1250233556       10.8759837647
  C        39.3679152129       17.1343373417        9.4533655541
  C        38.1603956584       17.2428821410        8.6936302709
  C        20.3336563774       17.9362335882        8.7568077706
  C        20.3582125559       17.9301740583       11.5703649019
  C        34.4531389229       17.2335528597        2.1853410218
  C        35.7596551043       17.1291011349        2.8957525402
  C        35.9843994181       16.1302267897        3.8554312305
  C        37.1716469709       16.1147848052        4.5837772618
  C        38.1648399115       17.0878944040        4.3666609183
  C        37.9514936130       18.0556724938        3.3665593894
  C        36.7613669035       18.0820105768        2.6462941923
  C        39.4109793523       17.1112378676        5.1649362839
  C        39.3874487866       17.1231943137        6.5862677341
  C        38.1687374726       17.2315102108        7.3270455948
  C        35.1343448556       26.6464829508        7.2976060195
  C        35.1683372960       26.6602997124        4.4884769301
  C        26.5722650786       17.8248915565        2.3310811763
  C        25.2562127873       17.8782556526        3.0326158666
  C        24.9841251874       18.8956150208        3.9597201840
  C        23.7655175156       18.9234426805        4.6319826403
  C        22.7892018825       17.9344184853        4.3993379787
  C        23.0539638150       16.9429809188        3.4372720162
  C        24.2736125634       16.9126426111        2.7641168939
  C        21.5261260445       17.9168594897        5.1735696678
  C        21.5521760750       17.9084414027        6.5948253808
  C        22.7723022939       17.7946617812        7.3338019071
  C        14.0455330668       17.8291918131        2.2932155190
  C        15.3499113007       17.8876023880        3.0185439531
  C        15.6054624175       18.8927667314        3.9641595777
  C        16.8143960013       18.9157962226        4.6568735084
  C        17.8011666060       17.9364668731        4.4252662846
  C        17.5502276360       16.9551035403        3.4478594889
  C        16.3406742522       16.9275475715        2.7568878882
  C        19.0706776089       17.9218487569        5.1928602536
  C        19.0711140391       17.9190812114        6.6152698542
  C        17.8650162851       17.8197891765        7.3779505868
  C        46.8046518504       17.2176217920        2.1625666351
  C        45.5140840145       17.1536667602        2.9047198758
  C        45.3104606065       16.1792439958        3.8940160756
  C        44.1274601607       16.1598664330        4.6274236927
  C        43.1186635972       17.1145747622        4.3930362099
  C        43.3192352551       18.0675764469        3.3762397970
  C        44.5031155015       18.0913088698        2.6440261211
  C        41.8654253841       17.1242757189        5.1801708221
  C        41.8712406047       17.1295465128        6.6018633029
  C        43.0796387590       17.2351603948        7.3599382695
  C        20.3186530042       17.9305956547        7.3219339583
  C        20.2936520683       17.9031938752        4.5085831748
  C        46.7839319707       17.2328894280       13.8804647580
  C        45.4824380977       17.1309141953       13.1604554268
  C        45.2660508575       16.1391389218       12.1913600675
  C        44.0786879608       16.1151781150       11.4635104269
  C        43.0763469083       17.0796828081       11.6864635286
  C        43.2837425698       18.0415272417       12.6931154187
  C        44.4722769136       18.0721853546       13.4160728358
  C        41.8291380209       17.1022820303       10.8896877307
  C        41.8526087923       17.1178425848        9.4683938874
  C        43.0708740385       17.2265118781        8.7266345640
  C        46.1534155886       26.6372946555        8.7211552183
  C        46.1623045014       26.6559853406       11.5307990014
  C        14.0465428261       17.8316464816       13.7032437739
  C        15.3689437564       17.9053997047       13.0121146887
  C        15.6452233859       18.9224132226       12.0860048019
  C        16.8747372104       18.9592011350       11.4312907223
  C        17.8567723510       17.9779505566       11.6760373490
  C        17.5873045893       16.9896443402       12.6403953074
  C        16.3599092868       16.9526341060       13.2988485258
  C        19.1243598508       17.9528069086       10.9056852340
  C        19.0993815312       17.9335759919        9.4837220832
  C        17.8787292025       17.8267321289        8.7440153166
  C        28.8052071938       14.0861774643        2.3917542459
  C        28.1910645268       12.9139439153        3.0793282284
  C        28.9217917683       12.1576818779        4.0080722484
  C        28.3209016737       11.0850764656        4.6623022410
  C        26.9770902233       10.7432604662        4.4090750827
  C        26.2683463762       11.4783266469        3.4420662952
  C        26.8660196689       12.5526608929        2.7879908612
  C        26.3092926642        9.6634633787        5.1716606806
  C        26.3038222381        9.6881567944        6.5925713020
  C        26.8149790243       10.7985452597        7.3365189031
  C        32.1804844290       21.2406722616        2.1520087990
  C        32.7702176116       22.4093447046        2.8680576346
  C        32.0221828550       23.0835308238        3.8455072837
  C        32.5906562635       24.1234423924        4.5740294233
  C        33.9235857934       24.5169125185        4.3466601184
  C        34.6541117849       23.8614356185        3.3374244729
  C        34.0878914123       22.8163275950        2.6102982552
  C        34.5513323936       25.5917321142        5.1481412646
  C        34.5407295489       25.5633868028        6.5699371106
  C        34.0283166062       24.4499502787        7.3084744914
  C        25.6934911203        8.6119410125        7.3131757886
  C        25.6684588014        8.6148059971        4.4996298113
  C        32.1030865489       21.2278657806       13.8787679946
  C        32.6916396246       22.3815848056       13.1375826606
  C        31.9516844348       23.0467133077       12.1477891180
  C        32.5301269879       24.0763918230       11.4095129236
  C        33.8617762948       24.4712432086       11.6439827578
  C        34.5844563894       23.8200490011       12.6619379397
  C        34.0110390787       22.7842972591       13.3948760542
  C        34.5003447724       25.5526960285       10.8586895524
  C        34.5133591324       25.5444909428        9.4367638746
  C        34.0136904102       24.4414536867        8.6751880152
  C        40.6147456838       17.1115563742        8.7450332322
  C        40.5981734766       17.1239513015       11.5547756154
  C        28.7489132721       14.0682344767       13.8138720447
  C        28.1395971035       12.9219764916       13.0750134498
  C        28.8729486246       12.2336831964       12.0964266554
  C        28.2938085009       11.1760983141       11.3991383740
  C        26.9645902437       10.7816932277       11.6531710870
  C        26.2482005945       11.4587700012       12.6580479507
  C        26.8262329093       12.5155962558       13.3586301390
  C        26.3227662536        9.6908091712       10.8810606926
  C        26.3110035222        9.7032068921        9.4590772246
  C        26.8152840829       10.8074459322        8.7023462310
  C        18.1354377334        3.1809878662        2.3222469222
  C        17.4060838070        4.2782228270        3.0208439199
  C        16.3905535552        3.9998572009        3.9485627187
  C        15.7428080240        5.0398239785        4.6120663528
  C        16.0945373927        6.3835610286        4.3722138312
  C        17.0837144987        6.6530815285        3.4082395240
  C        17.7328318055        5.6157551466        2.7431961395
  C        15.4702045166        7.4912561955        5.1352425304
  C        15.4856322935        7.4906795662        6.5569480227
  C        16.1873864707        6.4972059234        7.3101225718
  C        42.9459658365       31.8594623034        2.0780182354
  C        43.6463069075       30.7718342252        2.8218974202
  C        44.5919157651       31.0931404128        3.8079141686
  C        45.1975903744       30.0875810428        4.5555709484
  C        44.8710804145       28.7345143404        4.3407776175
  C        43.9452385714       28.4201878671        3.3275624400
  C        43.3364700665       29.4253362416        2.5795027833
  C        45.4886302181       27.6552182049        5.1439848908
  C        45.4929929151       27.6810040583        6.5656720442
  C        44.8060897039       28.6891679027        7.3123018480
  C        14.8565105153        8.5630920584        7.2692968626
  C        14.8747198971        8.5628942611        4.4566308076
  C        42.9465211135       31.9615041030       13.8038649857
  C        43.6917532981       30.8854416519       13.0904627594
  C        44.6563190045       31.1913742141       12.1181201262
  C        45.2778515809       30.1718060544       11.4003999624
  C        44.9541486934       28.8214588652       11.6380522675
  C        44.0207349249       28.5237649565       12.6489036707
  C        43.3924806085       29.5405117199       13.3611038455
  C        45.5631559650       27.7240869141       10.8527601692
  C        45.5335784792       27.7175172613        9.4314577633
  C        44.8273774354       28.7078183926        8.6784842103
  C        35.1217455043       26.6358362161        8.7323991731
  C        35.1126457482       26.6099087836       11.5422610529
  C        18.1485570781        3.2470232657       13.7014787328
  C        17.4299556504        4.3438551328       12.9921939122
  C        16.4148887187        4.0525532294       12.0684815964
  C        15.7665609828        5.0831669953       11.3930819820
  C        16.1210441721        6.4284226018       11.6159691195
  C        17.1122257101        6.7118178386       12.5734280544
  C        17.7599378503        5.6829314546       13.2531944794
  C        15.4905121264        7.5241194000       10.8435547550
  C        15.4965967830        7.5075825779        9.4224224766
  C        16.1935836427        6.5060320127        8.6757272880
  H        10.6721476762       12.4660457008       11.8992603998
  H        11.6941681564       10.5511956411       10.6573712893
  H        15.3909097375       11.1676459265       12.7677782659
  H        14.3504899133       13.0705388125       14.0131155049
  H        13.3752475137       11.6307796924        9.1961614499
  H        50.3229004436       22.7489747644       11.9822922396
  H        49.3196592436       24.6234528975       10.6762656094
  H        45.6414737846       24.1600410634       12.8576228903
  H        46.6623791225       22.2891097111       14.1657820897
  H        47.6294745688       23.5757321290        9.2411285324
  H        14.8714976047        8.5880047516       12.6034312006
  H        50.2871954225       22.7033466208        4.0646824350
  H        49.2690825822       24.5761807075        5.3647769660
  H        45.6095302239       24.1076701037        3.1523967072
  H        46.6516661477       22.2523724313        1.8382340223
  H        47.6073943544       23.5516475494        6.8019558730
  H        40.6482780091       17.0973786614        3.4127808587
  H        48.6866688444       14.0949098496       15.7948534990
  H        10.6810963885       12.4666742851        4.0982421969
  H        11.6891678763       10.5247475806        5.3020133750
  H        15.3930008423       11.1581497793        3.2101619762
  H        14.3645328725       13.0866221470        1.9946768576
  H        13.3749353505       11.6217396130        6.7581588502
  H        47.9301723345       14.2173913663        1.7159696956
  H        47.7796298335       14.3719005079       14.4894721023
  H        49.0825162650       18.5519532459        2.8719898150
  H        10.4153320322       14.1343639724        0.0036272155
  H        24.4870008442        3.0298064877       11.9140315329
  H        25.6292546256        4.8892516583       10.6901329711
  H        23.2534668318        7.7554458634       12.8439635505
  H        22.1291326004        5.8862277148       14.0691961990
  H        23.8116718055        5.7949780290        9.2668010022
  H        36.3731911621       32.1892102924       11.9657186768
  H        35.2459414227       30.3654234526       10.6870385529
  H        37.5120288349       27.4402516861       12.8803860014
  H        38.6190206449       29.2768117312       14.1682222727
  H        37.0170613771       29.4530775578        9.2692285432
  H        25.7477723000        8.6117909520       12.6475566955
  H        36.4549469531       32.2439132207        4.1151987930
  H        35.3394488961       30.4280602000        5.4101403310
  H        37.5232629716       27.4882526438        3.1522938105
  H        38.6132661805       29.3159583482        1.8446332601
  H        37.0362178085       29.4722724582        6.8312865496
  H        46.1088287433       26.5871600796        3.3906733328
  H        44.6683873678       35.1161835308       15.8087879021
  H        24.4310021207        3.0405537108        4.0963891012
  H        25.5592614862        4.8807295444        5.3491965278
  H        23.1597259209        7.7679376865        3.2507890734
  H        22.0431407536        5.9156469119        1.9979021122
  H        23.7848133366        5.7953009814        6.8283885788
  H        44.9542487742       34.3907240414        1.7004210631
  H        44.9022622846       34.2070176823       14.4853811955
  H        40.6660991075       33.2090668632        2.8582239654
  H        23.1504995090        1.9577863399        0.0106128248
  H        25.8292895582       19.6341177106       11.8878525909
  H        23.6607870452       19.6808440238       10.6573770687
  H        22.3553952742       16.2085104431       12.8352852962
  H        24.5298579872       16.1761342433       14.0660766825
  H        23.7285735959       17.6780523372        9.2257908750
  H        35.1148673647       15.4975800542       11.9224193595
  H        37.2437578223       15.4351558960       10.6295308112
  H        38.7112574130       18.7788831974       12.9055464745
  H        36.5822623522       18.8092113875       14.2168523404
  H        37.2188250551       17.3610203374        9.2218261994
  H        20.3667180798       17.9656451834       12.6583993963
  H        35.2201559726       15.3826978873        4.0516253209
  H        37.3340803117       15.3429407565        5.3329184875
  H        38.7131299708       18.8127290917        3.1917873120
  H        36.5733698085       18.8497789765        1.8997825146
  H        37.2336650467       17.3340147927        6.7834813307
  H        35.1422504979       26.6855471494        3.4007216575
  H        28.5125686737       21.0845192931       15.9619042684
  H        25.7393493289       19.6581494864        4.1351350270
  H        23.5546297359       19.7152544042        5.3475793817
  H        22.3077396907       16.1731421164        3.2517220382
  H        24.4947337009       16.1347384400        2.0372051265
  H        23.7035528840       17.6736591852        6.7882227684
  H        29.0032562485       21.7210356132        1.7681074390
  H        29.1462313786       21.7519044068       14.6053109375
  H        32.1512827655       18.5681949034        2.9620874268
  H        27.4095160477       19.0810458204        0.0968248235
  H        14.8461591471       19.6513173406        4.1407549629
  H        17.0094405770       19.7014429685        5.3836858801
  H        18.3020095296       16.1910056786        3.2609852224
  H        16.1345124548       16.1570176421        2.0177913822
  H        16.9218280233       17.7053512014        6.8516172242
  H        46.0961762825       15.4511377152        4.0811932457
  H        43.9693735294       15.3972664127        5.3868293466
  H        42.5475665363       18.8118683557        3.1909200589
  H        44.6750031603       18.8416002247        1.8758600909
  H        44.0203938685       17.3545135718        6.8301583603
  H        20.2856108373       17.9313510777        3.4204283625
  H        46.0436827506       15.4005190073       12.0104946332
  H        43.9146946757       15.3447882466       10.7131707808
  H        42.5159446281       18.7911508699       12.8729685414
  H        44.6517691463       18.8342424098       14.1704888579
  H        44.0049906268       17.3377617231        9.2695973904
  H        46.1990264462       26.6823701320       12.6182529525
  H        52.7408506491       21.0625113643        0.1997614080
  H        14.8863703524       19.6781945344       11.8954345566
  H        17.0867054600       19.7514962140       10.7165085330
  H        18.3356782047       16.2248726203       12.8379262357
  H        16.1376938900       16.1764605028       14.0271743370
  H        16.9458601902       17.7178090284        9.2889781063
  H        52.3217471394       21.6728785320       14.2892920973
  H        52.0125773182       21.7015747509        1.5006771580
  H        49.0666569075       18.6073810229       13.1988561578
  H        13.2470206775       19.0168041174       15.9717956807
  H        29.9597453659       12.4209089115        4.2005993257
  H        28.8883819284       10.4976867404        5.3810037041
  H        25.2303233530       11.2229098269        3.2391559214
  H        26.3171944808       13.1418362759        2.0573800761
  H        27.1807499354       11.6652465237        6.7942016819
  H        30.9991255370       22.7654918904        4.0296892028
  H        32.0060531395       24.6453786618        5.3283347522
  H        35.6859177836       24.1557877646        3.1566735583
  H        34.6580313701       22.2844819482        1.8520305697
  H        33.6699730491       23.5811344266        6.7636458021
  H        25.6937664741        8.5966253053        3.4114976858
  H        30.9254646023       22.7363388106       11.9647760489
  H        31.9506189515       24.5928032369       10.6473994630
  H        35.6154878363       24.1138780947       12.8476631498
  H        34.5746196829       22.2581200046       14.1618201441
  H        33.6446669038       23.5660501918        9.2023875761
  H        40.5915492277       17.0850237892       12.6424188035
  H        32.5252058250       14.1475590633        0.2568680181
  H        29.8979255554       12.5405303679       11.9010579152
  H        28.8715229190       10.6371636508       10.6513015764
  H        25.2199307950       11.1668641693       12.8615713313
  H        26.2704998775       13.0521869040       14.1240062335
  H        27.1806552716       11.6814446966        9.2335335411
  H        33.3044792758       14.2141974755       14.4394991585
  H        33.4045380667       14.3573521064        1.6350184170
  H        32.1860182840       18.5395833122       13.2167055927
  H        30.2268199614       14.1890007196        0.0757051336
  H        16.1185870102        2.9633423423        4.1350450545
  H        14.9534618725        4.8204285530        5.3278385150
  H        17.3659366252        7.6859791482        3.2149562944
  H        18.5146678698        5.8183924524        2.0151294307
  H        16.7540458902        5.7399370450        6.7766281415
  H        44.8283026271       32.1402003928        3.9820756842
  H        45.9375072908       30.3413177867        5.3114709412
  H        43.6825073480       27.3781208667        3.1574737593
  H        42.5998937064       29.1899541610        1.8148165209
  H        44.2308102041       29.4369975345        6.7740081778
  H        14.8507474354        8.5459977191        3.3684174042
  H        44.8998524159       32.2340491192       11.9266365389
  H        46.0247442019       30.4130600436       10.6471587713
  H        43.7638656649       27.4840208962       12.8405272418
  H        42.6461021423       29.3176298791       14.1196397265
  H        44.2689601397       29.4707909605        9.2130365663
  H        35.0728824589       26.6209335791       12.6298407489
  H        36.6051638905       35.1340921292        0.1857224907
  H        16.1439602721        3.0129577236       11.8986287990
  H        14.9743442163        4.8563036015       10.6828805537
  H        17.3955266069        7.7473105283       12.7504848565
  H        18.5427077162        5.8933685970       13.9780761799
  H        16.7650888095        5.7558607065        9.2141879450
  H        36.2785771051       34.4825940060       14.2680557504
  H        36.3810877691       34.2091034166        1.5047143340
  H        40.5805238799       33.2025777836       13.1485246424
  H        17.4707686599        1.9473918275       15.9690874743
  H        28.7886798738       18.9172360972        4.3962982470
  H        28.8979739197       18.5047854580       11.7998224483
  H        31.6991313879       15.6826823903       11.5282274744
  H        31.1291285936       15.3906566398        4.3735231265
  H        28.5672060072       17.1894640122        7.0660680672
  H        30.0211687106       14.9264345972        6.8389414925
  H        30.3880338160       20.0494431167       10.2327509564
  H        32.9903840109       17.6411821521        9.2424638475
  H        18.8534696411        0.8690017332        4.3403571771
  H        40.5279803842       35.2288877531       11.9469336768
  H        42.3242482712       34.4190416777       11.5852258903
  H        22.0878040866        0.6917165020        4.3569246447
  H        11.5969710131       18.7130785538        4.3873031924
  H        52.2647657138       18.4310213925       11.6721988040
  H        49.2560316638       16.4766454330       11.5789267317
  H        10.1502667171       15.7981163248        4.2980161724
  H        50.8498199882       17.6921352513       11.9493444997
  H        10.0460216498       17.3943949181        4.0571379202
  H        20.2148393590        0.0021991623        4.0470746492
  H        39.1837547306       36.1245074451       11.6814132691
 Ni        31.0704367199       17.8851890142       10.9091476005
 Ni        30.9827091353       16.5739223577        8.4121379070
 Ni        30.1301693709       18.9247811363        7.9903865012
 Ni        30.3118483207       17.3559886506        5.3337753603
  O        10.6497950929       14.3651296343       13.4807370806
  O        12.6131355290       14.6575687583       14.5787139726
  O        49.1479512564       16.8460140592       15.9845479297
  O        50.3502160834       20.9359404044       13.6430207167
  O        48.3485534280       20.5933232211       14.6608321962
  O        11.0512665999       17.0539556626       14.4953834778
  O        50.3209336995       20.8817013165        2.4118835588
  O        48.3467412467       20.5867309737        1.3321276584
  O        49.5436243691       18.2484769636        2.0732994994
  O        12.3588543667       18.6244871373        0.0046919763