     580
 i =      143, E =     -4813.3837394425
  C        11.8584586629       14.0534231601       13.7364874361
  C        12.4558439292       12.8903287194       13.0184338878
  C        11.7044983265       12.1721538691       12.0759045748
  C        12.2808565022       11.1099680373       11.3835120609
  C        13.6211002984       10.7393697238       11.6119910765
  C        14.3537702036       11.4420102374       12.5865430670
  C        13.7809141863       12.5069437736       13.2781182948
  C        14.2607849941        9.6488839368       10.8385053015
  C        14.2562726925        9.6569719769        9.4167986596
  C        13.7431136187       10.7590680136        8.6628389929
  C        49.1266219671       21.2332632827       13.8745661946
  C        48.5500088297       22.4010641203       13.1475385579
  C        49.3000596048       23.0683925585       12.1665137415
  C        48.7331323805       24.1075108181       11.4333292844
  C        47.4025772627       24.5092221556       11.6619294108
  C        46.6716214972       23.8603311815       12.6754519759
  C        47.2340350722       22.8154258953       13.4048112426
  C        46.7724138325       25.5869262659       10.8646225849
  C        46.7616851562       25.5573840133        9.4428575917
  C        47.2616067326       24.4422939750        8.6993466200
  C        14.8604113756        8.5707552061        8.7035068250
  C        14.8915478438        8.5968739101       11.5151183213
  C        49.1130366544       21.2035302644        2.1504261752
  C        48.5277783770       22.3647581275        2.8774882982
  C        49.2670714358       23.0256096215        3.8703126313
  C        48.6907234719       24.0601279455        4.6017545953
  C        47.3602282837       24.4568042181        4.3636591943
  C        46.6397559400       23.8117532290        3.3402514573
  C        47.2132979322       22.7758582937        2.6084624282
  C        46.7218594736       25.5317788444        5.1547110676
  C        46.7338898202       25.5282091761        6.5764075805
  C        47.2493269662       24.4289988871        7.3327922971
  C        40.6186665998       17.1013896906        7.3189941519
  C        40.6325139714       17.1140737584        4.5090526191
  C        11.8827587731       14.0863892021        2.2904857572
  C        12.4719391604       12.9104265017        2.9944755300
  C        11.7147697750       12.1779521986        3.9214586825
  C        12.2813156280       11.0955125765        4.5899268133
  C        13.6197877172       10.7209604948        4.3573135401
  C        14.3572434099       11.4355500901        3.3953468199
  C        13.7918530829       12.5166928806        2.7226127714
  C        14.2535427148        9.6244122144        5.1278366762
  C        14.2524475105        9.6445931600        6.5496807609
  C        13.7425738657       10.7535250266        7.2967897955
  C        22.5124019279        3.2442493490       13.7482857548
  C        23.2284894803        4.3491591348       13.0493770014
  C        24.2243446193        4.0681473888       12.1022713602
  C        24.8525968635        5.1070449852       11.4203182190
  C        24.5008593476        6.4492222808       11.6655105365
  C        23.5334655126        6.7217366085       12.6498742796
  C        22.9004665519        5.6846526720       13.3301370224
  C        25.1064853569        7.5555284248       10.8893204398
  C        25.0731929596        7.5508404885        9.4679319668
  C        24.3681851348        6.5526401738        8.7230863916
  C        38.3024905846       31.9290789493       13.8438943250
  C        37.5733715301       30.8391505479       13.1349663641
  C        36.6176702208       31.1415261104       12.1528924628
  C        36.0018955233       30.1200589053       11.4349720101
  C        36.3263902709       28.7708753690       11.6777619622
  C        37.2518185138       28.4762223290       12.6967475125
  C        37.8722090030       29.4963004724       13.4130867016
  C        35.7260734262       27.6777966823       10.8807288988
  C        35.7614041648       27.6902420461        9.4593925556
  C        36.4695524343       28.6911450231        8.7223479547
  C        25.6936666754        8.6217611052        8.7472859571
  C        25.7084854072        8.6280187126       11.5590917284
  C        38.3286040708       31.9612727084        2.1617027898
  C        37.6082399833       30.8872459006        2.9034187874
  C        36.6826813175       31.1939171437        3.9127230972
  C        36.0748958044       30.1739971406        4.6423679214
  C        36.3778107194       28.8215327495        4.3864047796
  C        37.2804376479       28.5250294244        3.3466320992
  C        37.8906306445       29.5413232042        2.6184406853
  C        35.7723321713       27.7207174949        5.1704848782
  C        35.7851631388       27.7120110696        6.5925413911
  C        36.4802718409       28.7019088761        7.3557781182
  C        46.1359296287       26.6208558109        7.2865550916
  C        46.0877147847       26.5800324342        4.4786585339
  C        22.4598889171        3.2557855944        2.2629972234
  C        23.1516858695        4.3651346369        2.9868618964
  C        24.1521085107        4.0803147672        3.9297501544
  C        24.7778092354        5.1113627278        4.6263645159
  C        24.4233093185        6.4568349963        4.4024482847
  C        23.4459218925        6.7348613597        3.4281243043
  C        22.8154428499        5.7040790936        2.7321758542
  C        25.0526444032        7.5558321111        5.1763380191
  C        25.0460873435        7.5502210991        6.5991491295
  C        24.3534387099        6.5533779773        7.3564504535
  C        26.6248391788       17.8620527267       13.7776466961
  C        25.3231058929       17.9013707081       13.0419019299
  C        25.0656864210       18.8910238892       12.0786534413
  C        23.8511332820       18.9075164255       11.3950971966
  C        22.8580584738       17.9393840753       11.6512277322
  C        23.1148462121       16.9700038598       12.6394245643
  C        24.3303523517       16.9466125065       13.3209128740
  C        21.5820420902       17.9249621746       10.8918754349
  C        21.5806295924       17.8980636202        9.4698003955
  C        22.7845335335       17.7636445065        8.7081886155
  C        34.4260310523       17.2179971152       13.9091059181
  C        35.7148971517       17.1576508888       13.1611898327
  C        35.9078112721       16.1991541462       12.1541525643
  C        37.0909695219       16.1781370042       11.4203496121
  C        38.1130900487       17.1146179092       11.6719128596
  C        37.9213343759       18.0536763296       12.7036196224
  C        36.7366020117       18.0797050925       13.4354948862
  C        39.3683070985       17.1187815856       10.8858409734
  C        39.3635022072       17.1317194242        9.4636476741
  C        38.1567958937       17.2584834038        8.7059624862
  C        20.3329542504       17.9191197447        8.7635283212
  C        20.3584124513       17.9327872151       11.5769083407
  C        34.4405117359       17.2368317624        2.1947837894
  C        35.7404061636       17.1403612578        2.9194242350
  C        35.9458045134       16.1654893305        3.9070861970
  C        37.1367485479       16.1381106505        4.6289526546
  C        38.1514776938       17.0840081708        4.3829922316
  C        37.9519853711       18.0317247924        3.3616203484
  C        36.7603493084       18.0646839680        2.6435822977
  C        39.4015179052       17.1025217831        5.1754291953
  C        39.3806084988       17.1230882865        6.5968028323
  C        38.1646385250       17.2519014082        7.3394533986
  C        35.1556077161       26.6320354673        7.2964099616
  C        35.1801415397       26.6512122695        4.4875236254
  C        26.5830460894       17.7906895983        2.3596182570
  C        25.2675402137       17.8351211453        3.0632645971
  C        24.9889230627       18.8541053703        3.9863707353
  C        23.7652629744       18.8830005284        4.6490542735
  C        22.7917181839       17.8921259197        4.4127212843
  C        23.0645849411       16.8966175846        3.4576928672
  C        24.2885051256       16.8670447220        2.7918262155
  C        21.5255168473       17.8784181017        5.1816479536
  C        21.5508461857       17.8728420886        6.6026781538
  C        22.7702319658       17.7517469258        7.3421605816
  C        14.0455335980       17.8274430509        2.2946507875
  C        15.3493931929       17.8807246235        3.0223167830
  C        15.6095034245       18.8850508050        3.9675901113
  C        16.8182701964       18.9024714878        4.6612145770
  C        17.8004733978       17.9179733488        4.4314880146
  C        17.5447422267       16.9369474303        3.4549222430
  C        16.3356598166       16.9153131321        2.7628087097
  C        19.0700609954       17.8977532811        5.1995101678
  C        19.0702424489       17.8988064470        6.6220018863
  C        17.8637887849       17.8076991463        7.3851910243
  C        46.8023606504       17.2172222054        2.1635537267
  C        45.5102437910       17.1500689533        2.9064848978
  C        45.3058561355       16.1702723227        3.8907204031
  C        44.1224837800       16.1454187405        4.6243721426
  C        43.1118327374       17.1001212398        4.3968522419
  C        43.3132211042       18.0589724432        3.3852836539
  C        44.4974733951       18.0878710321        2.6524793633
  C        41.8579057109       17.1065137960        5.1862199908
  C        41.8648104242       17.1111384765        6.6086736828
  C        43.0739619675       17.2085167669        7.3668331682
  C        20.3176205048       17.9059189402        7.3289507716
  C        20.2935266612       17.8706437870        4.5156815512
  C        46.7832909043       17.2316173589       13.8820421003
  C        45.4800120276       17.1258082218       13.1650944115
  C        45.2613747523       16.1277364509       12.2030175048
  C        44.0727724948       16.0994925420       11.4771905193
  C        43.0715579694       17.0662050338       11.6951238754
  C        43.2809458743       18.0343388641       12.6953320536
  C        44.4706208554       18.0689783284       13.4164276129
  C        41.8239472183       17.0870315895       10.8984208059
  C        41.8475428535       17.1002149279        9.4768836950
  C        43.0658393264       17.2003935299        8.7336966618
  C        46.1537041803       26.6372753464        8.7211005748
  C        46.1622741446       26.6559550967       11.5307574110
  C        14.0459413726       17.8318040787       13.7038849573
  C        15.3687641832       17.9060415072       13.0142162036
  C        15.6464998053       18.9246113025       12.0903919873
  C        16.8768025632       18.9615464033       11.4372851133
  C        17.8572151266       17.9788980886       11.6819162141
  C        17.5863114054       16.9888894556       12.6438848822
  C        16.3581913446       16.9517409396       13.3006731078
  C        19.1247049330       17.9517449906       10.9119775695
  C        19.0989498901       17.9250325063        9.4903133604
  C        17.8777375415       17.8193441168        8.7511824512
  C        28.8093101373       14.0901230781        2.3961690488
  C        28.1926070170       12.9179072452        3.0826267488
  C        28.9139643282       12.1752255640        4.0290221589
  C        28.3120183586       11.1023017765        4.6815831226
  C        26.9749153157       10.7474960833        4.4107246673
  C        26.2757242822       11.4695839127        3.4270572064
  C        26.8752539437       12.5433005590        2.7736656212
  C        26.3041461183        9.6688845094        5.1720310412
  C        26.2919830527        9.6960275886        6.5930205450
  C        26.7944310002       10.8099134761        7.3377048722
  C        32.1800379064       21.2354156880        2.1557713353
  C        32.7740005830       22.4004239435        2.8725756849
  C        32.0398824053       23.0569747901        3.8713836059
  C        32.6114808770       24.0979538123        4.5952969643
  C        33.9352155204       24.5072540919        4.3456158907
  C        34.6526716243       23.8676015785        3.3165091598
  C        34.0824390236       22.8232963384        2.5918038727
  C        34.5676537935       25.5794324442        5.1466256437
  C        34.5639637339       25.5476802652        6.5687960910
  C        34.0582592029       24.4310970684        7.3072897028
  C        25.6841071452        8.6178418386        7.3127065863
  C        25.6676219648        8.6177481596        4.4993322491
  C        32.1043676356       21.2230184897       13.8750397784
  C        32.6926495472       22.3746094608       13.1318278954
  C        31.9607968202       23.0306381147       12.1301002049
  C        32.5423903672       24.0598254236       11.3934352845
  C        33.8690484319       24.4635991445       11.6412554553
  C        34.5830854452       23.8214263701       12.6711262073
  C        34.0069113544       22.7862628513       13.4022752075
  C        34.5118156192       25.5434798494       10.8572374407
  C        34.5336446392       25.5306621346        9.4353202674
  C        34.0421940853       24.4239387488        8.6739809058
  C        40.6095421519       17.1008416036        8.7539477865
  C        40.5930496660       17.1125746415       11.5641403388
  C        28.7482893620       14.0656724951       13.8137419161
  C        28.1399689180       12.9179509418       13.0773878535
  C        28.8670808038       12.2403688941       12.0865914236
  C        28.2861212464       11.1841831178       11.3887979932
  C        26.9616742706       10.7808827817       11.6539778699
  C        26.2526017535       11.4466075195       12.6716572077
  C        26.8321183375       12.5018335673       13.3729992872
  C        26.3172438713        9.6924673088       10.8811221254
  C        26.2998268477        9.7087879776        9.4591842980
  C        26.7955353265       10.8175573228        8.7035169591
  C        18.1354823801        3.1807045416        2.3222501014
  C        17.4061957649        4.2781118739        3.0210377809
  C        16.3901395027        3.9998044977        3.9481501551
  C        15.7423977906        5.0398193010        4.6116461846
  C        16.0946841947        6.3834631812        4.3722647937
  C        17.0844931724        6.6529580051        3.4089594840
  C        17.7335927772        5.6155703708        2.7439484934
  C        15.4702874943        7.4912191733        5.1352397648
  C        15.4857246846        7.4907514410        6.5569529539
  C        16.1873607538        6.4971839643        7.3101117662
  C        42.9458688499       31.8594981233        2.0779779711
  C        43.6462236428       30.7717885647        2.8219960237
  C        44.5923289848       31.0930662630        3.8075169546
  C        45.1980303135       30.0875020004        4.5551757631
  C        44.8709916173       28.7345173615        4.3408034032
  C        43.9444769368       28.4201916304        3.3282378485
  C        43.3356723625       29.4253689368        2.5802134211
  C        45.4886916446       27.6552311979        5.1439581627
  C        45.4931305107       27.6809389566        6.5656516497
  C        44.8061439495       28.6890623620        7.3122586262
  C        14.8566511477        8.5632167387        7.2692739481
  C        14.8747551675        8.5628023741        4.4566140864
  C        42.9463731801       31.9615085049       13.8038336673
  C        43.6915297296       30.8853260832       13.0902235730
  C        44.6567784375       31.1912138521       12.1185797514
  C        45.2783241618       30.1716263513       11.4008522240
  C        44.9538933367       28.8213720251       11.6378903641
  C        44.0195792810       28.5236843798       12.6478697353
  C        43.3913055366       29.5404694686       13.3600354696
  C        45.5631112972       27.7240004562       10.8526834432
  C        45.5336533858       27.7173915789        9.4313801837
  C        44.8274217289       28.7076960843        8.6784415430
  C        35.1419318828       26.6222117349        8.7312444234
  C        35.1193138446       26.6034763043       11.5411146263
  C        18.1486671278        3.2468360770       13.7015332435
  C        17.4300348626        4.3438197380       12.9921385095
  C        16.4145953105        4.0525654936       12.0688593234
  C        15.7662755841        5.0832024632       11.3934288645
  C        16.1211869928        6.4283806431       11.6159406343
  C        17.1128566810        6.7117607912       12.5728730338
  C        17.7605460732        5.6828320648       13.2526347611
  C        15.4906511417        7.5241161034       10.8435225415
  C        15.4967190375        7.5076868247        9.4223814038
  C        16.1935758241        6.5060218827        8.6757177064
  H        10.6726176285       12.4667986696       11.8982709691
  H        11.6947490357       10.5520360037       10.6564035560
  H        15.3904186735       11.1665389714       12.7691342365
  H        14.3499917225       13.0693264273       14.0144864689
  H        13.3759210565       11.6311450384        9.1960942530
  H        50.3227521580       22.7483582293       11.9817234010
  H        49.3195655281       24.6227734495       10.6757139461
  H        45.6421053441       24.1610519248       12.8585907249
  H        46.6628678942       22.2902284017       14.1668191722
  H        47.6299242404       23.5757969095        9.2409860705
  H        14.8716453456        8.5878564808       12.6034192946
  H        50.2871532270       22.7028795239        4.0651790458
  H        49.2690820197       24.5756848555        5.3652101278
  H        45.6102687735       24.1088113234        3.1513345739
  H        46.6522692523       22.2536088731        1.8371087135
  H        47.6078858384       23.5517694282        6.8019318278
  H        40.6373274624       17.0763357372        3.4213473699
  H        48.6867767584       14.0948999968       15.7948166136
  H        10.6815576844       12.4675479850        4.0995071807
  H        11.6897002216       10.5256640148        5.3032067694
  H        15.3922791996       11.1567856222        3.2085215777
  H        14.3638046837       13.0852178444        1.9931269406
  H        13.3755884898       11.6220886358        6.7581885088
  H        47.9300970206       14.2176078369        1.7160616252
  H        47.7797256979       14.3724580646       14.4897071113
  H        49.0823898596       18.5521483209        2.8720111416
  H        10.4155644997       14.1344268736        0.0038000582
  H        24.4834649020        3.0292376873       11.9106895301
  H        25.6246805289        4.8887975877       10.6856784846
  H        23.2546429316        7.7550667205       12.8455483671
  H        22.1312402273        5.8857252979       14.0717684025
  H        23.8083065156        5.7956353090        9.2644641048
  H        36.3825687965       32.1845010319       11.9542040920
  H        35.2608305649       30.3580062350       10.6750645112
  H        37.5097761046       27.4372942063       12.8915007780
  H        38.6127093436       29.2763737796       14.1784287351
  H        37.0353175392       29.4403849621        9.2684041860
  H        25.7496199087        8.6078020995       12.6466439524
  H        36.4605931019       32.2377132313        4.1229992270
  H        35.3520623559       30.4176623384        5.4178366987
  H        37.5261543904       27.4851414611        3.1416815801
  H        38.6102082206       29.3167145002        1.8349287707
  H        37.0551834587       29.4591309785        6.8304764691
  H        46.1087384247       26.5873022359        3.3906139045
  H        44.6682102024       35.1161517944       15.8088357198
  H        24.4302046503        3.0423708519        4.0980978328
  H        25.5574974688        4.8836207526        5.3500924784
  H        23.1608279120        7.7690934352        3.2462531083
  H        22.0450219058        5.9157296659        1.9943185573
  H        23.7815085788        5.7975572412        6.8260123632
  H        44.9536810300       34.3903281827        1.7002831382
  H        44.9015101335       34.2066620375       14.4855927235
  H        40.6654145584       33.2086154004        2.8580294114
  H        23.1503783111        1.9577975465        0.0105523790
  H        25.8256752647       19.6455358018       11.8861102815
  H        23.6541177940       19.6824052035       10.6572519842
  H        22.3611824366       16.2125035861       12.8449457637
  H        24.5378962557       16.1869097209       14.0710442472
  H        23.7249738492       17.6359003948        9.2362996436
  H        35.1148595749       15.4826995753       11.9528819633
  H        37.2382381239       15.4262046859       10.6482178997
  H        38.7008073695       18.7863316329       12.9024030487
  H        36.5735460873       18.8195611127       14.2157567840
  H        37.2185532419       17.3917499932        9.2366944299
  H        20.3667524115       17.9756935100       12.6646759342
  H        35.1553235978       15.4462275763        4.1085527072
  H        37.2928432141       15.3795374476        5.3928476290
  H        38.7277435125       18.7690873980        3.1659106445
  H        36.5863212883       18.8157638891        1.8769334498
  H        37.2323358156       17.3790013863        6.7967561296
  H        35.1480993106       26.6798036037        3.4000092094
  H        28.5130309001       21.0796566379       15.9568947969
  H        25.7417193245       19.6186375708        4.1638770940
  H        23.5469397613       19.6775353593        5.3593862555
  H        22.3212599062       16.1242952809        3.2707815741
  H        24.5155092596       16.0881377455        2.0677585852
  H        23.6991074161       17.6160353819        6.7960752185
  H        29.0054464110       21.7135920222        1.7719552105
  H        29.1526446178       21.7478447043       14.6077501110
  H        32.0958960062       18.5170873606        2.9974761677
  H        27.4115646269       19.0843573801        0.0907675758
  H        14.8541137921       19.6477546381        4.1432569412
  H        17.0165861023       19.6880207610        5.3872541201
  H        18.2924286000       16.1685479035        3.2692112540
  H        16.1263977931       16.1451374229        2.0242231562
  H        16.9200364483       17.6955890392        6.8593349055
  H        46.0916641618       15.4413404962        4.0744638400
  H        43.9664375350       15.3777401629        5.3791267528
  H        42.5417961277       18.8045537777        3.2039335345
  H        44.6674626170       18.8432429963        1.8887648881
  H        44.0154676576       17.3210666278        6.8368773961
  H        20.2864718526       17.8968855042        3.4274745666
  H        46.0384924336       15.3877784295       12.0254567172
  H        43.9073746908       15.3242279173       10.7321852685
  H        42.5140447812       18.7858280534       12.8712351843
  H        44.6515983762       18.8358374918       14.1656328387
  H        44.0012397672       17.3054583212        9.2757004551
  H        46.1987568029       26.6823954600       12.6182185444
  H        52.7408607299       21.0625784381        0.1997729188
  H        14.8882372672       19.6811154676       11.9003580309
  H        17.0903951492       19.7544410671       10.7236458992
  H        18.3337891004       16.2229774257       12.8403110705
  H        16.1340585697       16.1744642869       14.0272057726
  H        16.9445657935       17.7163003709        9.2967503501
  H        52.3217216704       21.6729640097       14.2893890351
  H        52.0128299858       21.7017136376        1.5008851233
  H        49.0664593482       18.6077233073       13.1992571083
  H        13.2469423699       19.0168215290       15.9723520780
  H        29.9449373990       12.4528312418        4.2374542127
  H        28.8727733332       10.5257627147        5.4141598116
  H        25.2428606354       11.2047610426        3.2102773194
  H        26.3332452743       13.1222188186        2.0299695886
  H        27.1539738566       11.6799528755        6.7966632382
  H        31.0300520331       22.7181947410        4.0850368125
  H        32.0364102113       24.6035617536        5.3676142124
  H        35.6780392911       24.1730093641        3.1184535027
  H        34.6428116479       22.3043315574        1.8176168416
  H        33.7030285584       23.5597231414        6.7643089492
  H        25.6976897291        8.5975535474        3.4113445647
  H        30.9387933485       22.7138657690       11.9351566551
  H        31.9690957871       24.5676097463       10.6209423546
  H        35.6101515778       24.1219321593       12.8677498485
  H        34.5641357035       22.2675986746       14.1788676700
  H        33.6754471781       23.5470876481        9.2002337615
  H        40.5869355708       17.0746528086       12.6518366178
  H        32.5079951884       14.1492511464        0.2504552740
  H        29.8876719484       12.5553142454       11.8806722233
  H        28.8586572390       10.6543302646       10.6306172282
  H        25.2283072052       11.1474143611       12.8843812639
  H        26.2817666515       13.0298014033       14.1481697273
  H        27.1547350530       11.6941243343        9.2346650493
  H        33.3059796476       14.2223628908       14.4532375085
  H        33.4078696444       14.3983823547        1.6031386548
  H        32.1141879193       18.4867374636       13.1529156793
  H        30.2086367907       14.1833203593        0.0750835280
  H        16.1178383878        2.9633027439        4.1342538768
  H        14.9526686796        4.8204524989        5.3270086627
  H        17.3672508030        7.6858015949        3.2161698463
  H        18.5159530642        5.8180607702        2.0163974415
  H        16.7538380344        5.7398123577        6.7765602045
  H        44.8290296185       32.1401190726        3.9813128190
  H        45.9383036447       30.3411925090        5.3107444255
  H        43.6810834859       27.3782034844        3.1586921247
  H        42.5984394424       29.1900849376        1.8161230789
  H        44.2307795209       29.4368023851        6.7739197370
  H        14.8507790077        8.5457607918        3.3684022662
  H        44.9007994052       32.2338739934       11.9276232571
  H        46.0257065105       30.4128271609       10.6480779136
  H        43.7618860969       27.4840136083       12.8387806031
  H        42.6441370306       29.3176874965       14.1178304301
  H        44.2689050275       29.4705598134        9.2130560816
  H        35.0727296510       26.6181376900       12.6283989575
  H        36.6051111721       35.1338033903        0.1858740008
  H        16.1433711085        3.0129806698       11.8993632921
  H        14.9737735740        4.8563443461       10.6835397723
  H        17.3965861387        7.7472064384       12.7495175201
  H        18.5436723845        5.8931521550       13.9771712136
  H        16.7649263375        5.7557576164        9.2142212095
  H        36.2788125189       34.4820608541       14.2682290831
  H        36.3811094850       34.2090249912        1.5050812586
  H        40.5796978208       33.2020713676       13.1487376872
  H        17.4706976546        1.9467752193       15.9690136972
  H        28.7168463307       18.9052940772        4.3138304867
  H        28.9763672260       18.5211629100       11.7492632133
  H        31.8378938542       15.7912797240       11.5386149901
  H        31.5347584886       15.7478177020        4.5818589947
  H        28.6384592916       17.2772279286        6.9637006186
  H        29.9148822445       15.2029358831        6.4428065937
  H        30.4514009497       19.9639838552       10.2079912706
  H        32.8945793662       17.4995461915        9.3810630494
  H        27.3994398539       16.7500441636       11.2713681374
  H        18.8535407784        0.8689373925        4.3404524440
  H        40.5278205409       35.2288425875       11.9470395676
  H        42.3236344442       34.4184187008       11.5855800071
  H        22.0877248838        0.6920138599        4.3564673050
  H        11.5971524368       18.7130975356        4.3873303300
  H        52.2647406627       18.4308427380       11.6721900072
  H        49.2554125689       16.4769769612       11.5792243208
  H        10.1502734301       15.7979969843        4.2976922645
  H        50.8497544008       17.6922947855       11.9493127962
  H        10.0460988467       17.3943730398        4.0571360761
  H        20.2147934422        0.0020999329        4.0470681513
  H        39.1835337143       36.1241403207       11.6812213555
 Ni        31.0704078692       17.8429837178       10.8301957987
 Ni        31.2888551869       16.3956501834        8.0777842305
 Ni        29.9689020829       18.8173569582        8.1571899312
 Ni        30.0943502241       17.3346603159        5.1699168405
  O        10.6498048856       14.3651835158       13.4807509932
  O        12.6131012919       14.6576002487       14.5787651503
  O        49.1477345131       16.8460491425       15.9846380506
  O        50.3502596429       20.9357227948       13.6430951516
  O        48.3485583781       20.5932258450       14.6608711374
  O        11.0512126402       17.0540806156       14.4954327621
  O        50.3210261245       20.8815831292        2.4118322904
  O        48.3467722912       20.5866559014        1.3321723939
  O        49.5434599488       18.2484451320        2.0733756879