     575
 i =      215, E =     -4794.8903778694
  C        11.8588415120       14.0535626053       13.7363900804
  C        12.4563505359       12.8906950882       13.0180765894
  C        11.7046278816       12.1716244926       12.0765436642
  C        12.2810583281       11.1094454976       11.3842164782
  C        13.6216908924       10.7398035562       11.6118864966
  C        14.3549307848       11.4435922250       12.5851325495
  C        13.7819944828       12.5085568153       13.2766117775
  C        14.2612237632        9.6491272905       10.8385208201
  C        14.2564848672        9.6570262772        9.4168289048
  C        13.7434182572       10.7592116294        8.6629441594
  C        49.1269280229       21.2332223982       13.8744902532
  C        48.5502148727       22.4012494671       13.1474948855
  C        49.3001674475       23.0683746272       12.1663124299
  C        48.7332446889       24.1075237176       11.4331134875
  C        47.4028201740       24.5094105218       11.6619824253
  C        46.6719859761       23.8607876376       12.6757453904
  C        47.2344287929       22.8158753364       13.4050828517
  C        46.7725058439       25.5870520631       10.8647083358
  C        46.7613596046       25.5573620961        9.4429499433
  C        47.2612304350       24.4422456347        8.6994461020
  C        14.8603999024        8.5706749966        8.7035719316
  C        14.8919979674        8.5971876067       11.5151768226
  C        49.1131843818       21.2034414087        2.1504472810
  C        48.5277774212       22.3648125502        2.8776207540
  C        49.2669198128       23.0253197189        3.8707300257
  C        48.6905961242       24.0598849824        4.6021859292
  C        47.3602752097       24.4568625421        4.3637839555
  C        46.6399822277       23.8121899635        3.3400227220
  C        47.2135289356       22.7762859314        2.6082310517
  C        46.7218213015       25.5318250137        5.1548048550
  C        46.7334802853       25.5281331457        6.5765090249
  C        47.2488990903       24.4289143802        7.3328953266
  C        40.6337380691       17.1549661789        7.3255211090
  C        40.6573201111       17.1839843628        4.5162660464
  C        11.8831140219       14.0865605790        2.2906809457
  C        12.4725118433       12.9109207802        2.9950000212
  C        11.7149749455       12.1775095406        3.9209329779
  C        12.2816565006       11.0950968940        4.5893175103
  C        13.6205894359       10.7216530492        4.3576544088
  C        14.3586319068       11.4374856583        3.3971124614
  C        13.7931091896       12.5186190994        2.7244462240
  C        14.2541694294        9.6248550540        5.1280039619
  C        14.2527626590        9.6447475059        6.5498343342
  C        13.7429340225       10.7537203710        7.2969014276
  C        22.5120707443        3.2457734070       13.7463095771
  C        23.2255978786        4.3510430966       13.0440294999
  C        24.2208093294        4.0703498967       12.0959260535
  C        24.8479369034        5.1089830387       11.4121869478
  C        24.4962580144        6.4518363762       11.6552647076
  C        23.5286708837        6.7239636092       12.6399114077
  C        22.8970011124        5.6870985768       13.3223295089
  C        25.1040929281        7.5574913299       10.8785247450
  C        25.0811173799        7.5486734260        9.4565348375
  C        24.3796284283        6.5495619315        8.7095404430
  C        38.3031111218       31.9313205589       13.8451589996
  C        37.5738853482       30.8421213565       13.1366839014
  C        36.6139848192       31.1459608138       12.1595439774
  C        35.9980527558       30.1251875100       11.4415240443
  C        36.3281880961       28.7768654864       11.6798927814
  C        37.2581595908       28.4803645691       12.6937239583
  C        37.8781478959       29.4998717548       13.4105983402
  C        35.7262256248       27.6861757616       10.8828599631
  C        35.7536157653       27.7047345105        9.4618467243
  C        36.4621131383       28.7057397221        8.7252009722
  C        25.7077805002        8.6167882601        8.7363986166
  C        25.6998891273        8.6339368989       11.5484874311
  C        38.3287408164       31.9638668654        2.1609710130
  C        37.6039774644       30.8944479687        2.9040698786
  C        36.6807823292       31.2105539474        3.9124901753
  C        36.0658273817       30.1970462446        4.6443737273
  C        36.3594539795       28.8426893207        4.3899102566
  C        37.2604107195       28.5365564692        3.3517029848
  C        37.8782792817       29.5467407461        2.6216409549
  C        35.7449042451       27.7480675099        5.1743328135
  C        35.7632547383       27.7364816254        6.5959770988
  C        36.4672870225       28.7204588452        7.3587061736
  C        46.1354653808       26.6207608177        7.2866536409
  C        46.0879306737       26.5802312091        4.4787625759
  C        22.4626109782        3.2558560137        2.2615779567
  C        23.1608995488        4.3636667421        2.9814355230
  C        24.1658028162        4.0757983062        3.9187531482
  C        24.7982390281        5.1048588753        4.6121547008
  C        24.4459659834        6.4513235795        4.3909738901
  C        23.4642832315        6.7324459719        3.4219415105
  C        22.8272567928        5.7036400831        2.7288280227
  C        25.0796451489        7.5480985332        5.1646868959
  C        25.0693404375        7.5430660861        6.5872896683
  C        24.3718534865        6.5482505058        7.3428856391
  C        26.6161121944       17.8596616675       13.7754779224
  C        25.3113388241       17.9012300133       13.0481569271
  C        25.0468936111       18.8992098610       12.0967559706
  C        23.8341864697       18.9157816667       11.4107493953
  C        22.8478616767       17.9388547016       11.6556358470
  C        23.1077477748       16.9636810433       12.6370570416
  C        24.3231502602       16.9407431038       13.3194962471
  C        21.5745628884       17.9237458404       10.8919008107
  C        21.5753039786       17.9030962739        9.4693814216
  C        22.7809618523       17.7784767779        8.7092147463
  C        34.4107296313       17.2308475261       13.8759859246
  C        35.7072705865       17.1727048221       13.1387687632
  C        35.8987018422       16.2283212250       12.1179484538
  C        37.0869380159       16.2091513226       11.3928608120
  C        38.1137190473       17.1345521788       11.6658009542
  C        37.9232243474       18.0579548324       12.7114435627
  C        36.7341883614       18.0809796209       13.4362604093
  C        39.3714829943       17.1426994519       10.8860474157
  C        39.3714273234       17.1715192690        9.4645189035
  C        38.1683455640       17.3125100001        8.7033921738
  C        20.3287281802       17.9227323162        8.7610049042
  C        20.3501391941       17.9270795818       11.5745161703
  C        34.4733666322       17.2516777606        2.1876389694
  C        35.7762271702       17.1835250711        2.9116239607
  C        35.9930442205       16.2050425411        3.8928559105
  C        37.1799014273       16.1916328825        4.6196329167
  C        38.1787403830       17.1559216006        4.3831965622
  C        37.9688032017       18.1093513998        3.3700082668
  C        36.7789996385       18.1282207595        2.6471993501
  C        39.4254014537       17.1767491326        5.1784493739
  C        39.3991542813       17.1888763409        6.5989975729
  C        38.1806124779       17.3179432774        7.3370941945
  C        35.1296163628       26.6587980620        7.2992497773
  C        35.1403895165       26.6863265134        4.4907791248
  C        26.5678132392       17.8268916279        2.3307670489
  C        25.2534834048       17.8702883689        3.0361877217
  C        24.9878807122       18.8747531734        3.9787422240
  C        23.7702783907       18.8982443598        4.6525071295
  C        22.7892593255       17.9172276300        4.4065654457
  C        23.0487435107       16.9375004302        3.4312193576
  C        24.2675214921       16.9117111139        2.7561999834
  C        21.5261240520       17.8974990052        5.1799208303
  C        21.5502483528       17.8874572216        6.6014531019
  C        22.7689014649       17.7705673209        7.3428929664
  C        14.0463022973       17.8287653010        2.2938881178
  C        15.3501321520       17.8852104167        3.0189375963
  C        15.6066882946       18.8873151582        3.9677229732
  C        16.8154984766       18.9068641582        4.6606991023
  C        17.8016952048       17.9272157282        4.4268938220
  C        17.5499804664       16.9496487789        3.4457245251
  C        16.3406733663       16.9254018270        2.7543741601
  C        19.0703251622       17.9083453455        5.1958138083
  C        19.0688431579       17.9049190772        6.6181397949
  C        17.8616894970       17.8072608540        7.3792865052
  C        46.8074189466       17.2204655294        2.1647658616
  C        45.5199671249       17.1651200483        2.9137764024
  C        45.3127116699       16.1911279714        3.9024183430
  C        44.1327784234       16.1810323462        4.6412128209
  C        43.1321397199       17.1452543341        4.4120434740
  C        43.3371276611       18.0995024709        3.3975615971
  C        44.5174978813       18.1134346488        2.6599575060
  C        41.8791010115       17.1636656276        5.1987842885
  C        41.8821168547       17.1618022329        6.6203750596
  C        43.0896380498       17.2475855096        7.3824115866
  C        20.3155926299       17.9139536362        7.3263053932
  C        20.2942696339       17.8876275839        4.5133788451
  C        46.7839229416       17.2306152884       13.8852732883
  C        45.4783684350       17.1238385074       13.1730762187
  C        45.2579951028       16.1271418673       12.2104423577
  C        44.0688899515       16.1022728833       11.4855624159
  C        43.0705722789       17.0708173891       11.7067100022
  C        43.2803299863       18.0356756316       12.7095675620
  C        44.4706989799       18.0672002248       13.4290728251
  C        41.8258370753       17.1005513089       10.9070408294
  C        41.8549935867       17.1276342603        9.4862444601
  C        43.0767608518       17.2287528693        8.7488439144
  C        46.1532802933       26.6372064186        8.7212022730
  C        46.1626121078       26.6562122548       11.5308273686
  C        14.0453874193       17.8312262541       13.7034302393
  C        15.3658240731       17.9040146875       13.0126706182
  C        15.6398998497       18.9182903142       12.0830290553
  C        16.8687436560       18.9536545595       11.4279715186
  C        17.8509670983       17.9737526252       11.6764788380
  C        17.5837600252       16.9886403717       12.6445192781
  C        16.3570614987       16.9527665971       13.3032464343
  C        19.1178345541       17.9467967279       10.9073928933
  C        19.0936824319       17.9234849390        9.4859425775
  C        17.8737436132       17.8155175131        8.7452786397
  C        28.8148512178       14.0857956284        2.3663662139
  C        28.2098872284       12.9109761215        3.0599691390
  C        28.9379036083       12.1688427448        4.0011126221
  C        28.3418853858       11.0959012281        4.6597769232
  C        27.0033317043       10.7391603169        4.3987437706
  C        26.2965040497       11.4613481768        3.4207030064
  C        26.8900218605       12.5356673685        2.7628830422
  C        26.3355498046        9.6589782622        5.1619187506
  C        26.3203591403        9.6861854263        6.5828225732
  C        26.8236493638       10.7997373800        7.3274004476
  C        32.1505745385       21.2710159051        2.1565316717
  C        32.7328935320       22.4427302497        2.8737011621
  C        31.9876012516       23.1086338501        3.8581248723
  C        32.5571719956       24.1500961096        4.5846500496
  C        33.8869291282       24.5489759242        4.3484740508
  C        34.6129008045       23.9022698607        3.3308797167
  C        34.0454708609       22.8580376384        2.6048449286
  C        34.5224369422       25.6182834886        5.1498712922
  C        34.5260028505       25.5820128348        6.5710468388
  C        34.0176655356       24.4655673397        7.3075865106
  C        25.7068122550        8.6101845065        7.3017304778
  C        25.6982983861        8.6084282158        4.4886498028
  C        32.1048728021       21.2361867099       13.8825576965
  C        32.6984409518       22.3860285403       13.1377000440
  C        31.9576392605       23.0552230971       12.1512664978
  C        32.5372435969       24.0833357918       11.4116799247
  C        33.8711317851       24.4730114874       11.6427978914
  C        34.5946127958       23.8183160027       12.6576981758
  C        34.0197510189       22.7837707331       13.3914179841
  C        34.5095216186       25.5547849989       10.8587290548
  C        34.5175609198       25.5506133199        9.4371090802
  C        34.0126067721       24.4512699781        8.6740701571
  C        40.6196081108       17.1414484528        8.7594989335
  C        40.5932751750       17.1238556971       11.5688351672
  C        28.7251554045       14.0983772625       13.7761535738
  C        28.1214445557       12.9458778405       13.0438679312
  C        28.8601258743       12.2437449459       12.0790059205
  C        28.2839727507       11.1789162996       11.3905106305
  C        26.9525864906       10.7895900938       11.6405001279
  C        26.2317083328       11.4782064515       12.6341324368
  C        26.8067072773       12.5424436874       13.3258267636
  C        26.3143211356        9.6950610923       10.8705251171
  C        26.3103507879        9.7053227603        9.4485146116
  C        26.8157424707       10.8100117134        8.6930777385
  C        18.1354956935        3.1811761667        2.3222577356
  C        17.4062519869        4.2784316234        3.0208495436
  C        16.3904200264        4.0000985752        3.9482562833
  C        15.7427394149        5.0401084310        4.6117376296
  C        16.0948432808        6.3838106444        4.3722072107
  C        17.0843599205        6.6533057201        3.4085748932
  C        17.7334080065        5.6159375985        2.7435152169
  C        15.4705151527        7.4914920894        5.1352688544
  C        15.4856618436        7.4907073718        6.5569820862
  C        16.1871450869        6.4970381600        7.3101489995
  C        42.9459513725       31.8596118249        2.0780268024
  C        43.6463537534       30.7719309292        2.8220048474
  C        44.5918338528       31.0932563588        3.8081102834
  C        45.1975124420       30.0877018584        4.5557950701
  C        44.8711362038       28.7346417112        4.3408521076
  C        43.9453563708       28.4203049941        3.3276033453
  C        43.3365591002       29.4254574034        2.5795621030
  C        45.4886629724       27.6553150864        5.1440427190
  C        45.4927626081       27.6808897657        6.5657349703
  C        44.8056183788       28.6888978053        7.3123604550
  C        14.8566927235        8.5631873450        7.2693572101
  C        14.8753990978        8.5633572200        4.4566875482
  C        42.9464551632       31.9616454827       13.8039242658
  C        43.6917437769       30.8854916698       13.0904378536
  C        44.6561807913       31.1914321778       12.1180073680
  C        45.2777322153       30.1718574219       11.4002830284
  C        44.9541439640       28.8215260015       11.6380633872
  C        44.0208270997       28.5238395721       12.6489869814
  C        43.3925408720       29.5405918434       13.3611719606
  C        45.5631535913       27.7241271915       10.8527920144
  C        45.5333003591       27.7173579178        9.4314961280
  C        44.8269024970       28.7075397397        8.6785455249
  C        35.1251576147       26.6426019571        8.7335720006
  C        35.1239258258       26.6097981863       11.5432054511
  C        18.1486822861        3.2471171111       13.7014523294
  C        17.4301020869        4.3439518731       12.9922309158
  C        16.4147649656        4.0526940951       12.0687913530
  C        15.7664849616        5.0833293269       11.3933958311
  C        16.1212783493        6.4285472684       11.6160335166
  C        17.1128150094        6.7119330929       12.5731244537
  C        17.7604588156        5.6830050951       13.2528967818
  C        15.4907742151        7.5242311897       10.8435849612
  C        15.4965961456        7.5075596426        9.4224534011
  C        16.1933275675        6.5058352991        8.6757540661
  H        10.6724568594       12.4656449741       11.8996064270
  H        11.6948066951       10.5508266555       10.6577545926
  H        15.3920610833       11.1692491997       12.7666829489
  H        14.3515637720       13.0720056079       14.0117936651
  H        13.3765579448       11.6313911486        9.1962696138
  H        50.3227890191       22.7481560683       11.9813906143
  H        49.3196727658       24.6226385419       10.6753877262
  H        45.6426174990       24.1618289391       12.8591677876
  H        46.6635433667       22.2908266874       14.1673992622
  H        47.6298361047       23.5758972279        9.2411279269
  H        14.8724809583        8.5885232284       12.6034864417
  H        50.2869036374       22.7023313642        4.0657522595
  H        49.2689543674       24.5752077754        5.3658045376
  H        45.6106889219       24.1096834689        3.1507526477
  H        46.6528337636       22.2543592021        1.8364178629
  H        47.6076897783       23.5517962047        6.8020055495
  H        40.6658992954       17.1497608685        3.4285492379
  H        48.6871855295       14.0951402205       15.7949658667
  H        10.6814225516       12.4663777859        4.0981768528
  H        11.6899059761       10.5245033599        5.3018865536
  H        15.3942159437       11.1599722393        3.2114616626
  H        14.3655755464       13.0882756180        1.9962392892
  H        13.3763145057       11.6224217228        6.7582626165
  H        47.9302455092       14.2187230851        1.7159434121
  H        47.7801501886       14.3745549193       14.4903297682
  H        49.0848259093       18.5529544632        2.8727263987
  H        10.4163583183       14.1342959496        0.0037890637
  H        24.4811506942        3.0315704098       11.9052270501
  H        25.6199689737        4.8896447024       10.6778202651
  H        23.2485169004        7.7571008540       12.8348519385
  H        22.1282843884        5.8893483692       14.0642171487
  H        23.8156865235        5.7942993470        9.2491429979
  H        36.3761502236       32.1890955794       11.9651976932
  H        35.2531690176       30.3624449555       10.6851638150
  H        37.5194639007       27.4414047758       12.8836833789
  H        38.6223931478       29.2807560267       14.1724852435
  H        37.0331489561       29.4507952963        9.2714919454
  H        25.7314852139        8.6193936544       12.6364815021
  H        36.4666215914       32.2565326832        4.1197919878
  H        35.3446566051       30.4469149272        5.4194115449
  H        37.4981261178       27.4942994311        3.1494517658
  H        38.5967022010       29.3161311679        1.8387727284
  H        37.0435532846       29.4762908818        6.8328780887
  H        46.1094281855       26.5877020166        3.3907291280
  H        44.6681934125       35.1162025519       15.8088704808
  H        24.4417124886        3.0370156620        4.0854466465
  H        25.5806250808        4.8747303590        5.3322240821
  H        23.1808597585        7.7675229199        3.2422338525
  H        22.0535242185        5.9179439174        1.9951882001
  H        23.8013959893        5.7924420938        6.8108569205
  H        44.9533684819       34.3899176041        1.6999804866
  H        44.9011366791       34.2065770254       14.4855994672
  H        40.6660869865       33.2093950989        2.8583119577
  H        23.1505183335        1.9582249434        0.0095942337
  H        25.8010908394       19.6603977922       11.9109481742
  H        23.6350044495       19.6953060434       10.6784761793
  H        22.3578675167       16.2005271219       12.8352869822
  H        24.5341779170       16.1745807323       14.0619017004
  H        23.7220021515       17.6577175806        9.2379910918
  H        35.1008886950       15.5207514367       11.9031517112
  H        37.2358400251       15.4672010286       10.6114269334
  H        38.7074775439       18.7807716518       12.9268563138
  H        36.5712057294       18.8077527101       14.2288002105
  H        37.2299485033       17.4463362854        9.2332707679
  H        20.3570432189       17.9667362031       12.6623934247
  H        35.2113513192       15.4728173769        4.0802508766
  H        37.3485104690       15.4308429610        5.3786291648
  H        38.7342726626       18.8598111191        3.1836487083
  H        36.5937270205       18.8820752454        1.8857345539
  H        37.2518969146       17.4541521144        6.7902622933
  H        35.1052620094       26.7175040740        3.4034692905
  H        28.5065311946       21.0903120111       15.9830881408
  H        25.7485418291       19.6287130733        4.1670639863
  H        23.5643719517       19.6805272349        5.3798265516
  H        22.2993326691       16.1731033178        3.2363043155
  H        24.4850618591       16.1430988626        2.0184611119
  H        23.7005902912       17.6437504934        6.7993828670
  H        29.0036746332       21.7182854652        1.7705406578
  H        29.1435817675       21.7575857835       14.6148981823
  H        32.0746739037       18.5422405023        3.0109899935
  H        27.3985342587       19.0813448657        0.1060974134
  H        14.8483881366       19.6463042431        4.1466769416
  H        17.0111839236       19.6900462095        5.3899747078
  H        18.3013300895       16.1857569412        3.2562710075
  H        16.1345379808       16.1573772331        2.0127058941
  H        16.9190655534       17.6927192678        6.8520080639
  H        46.0930103424       15.4558603316        4.0843832957
  H        43.9707630069       15.4179396282        5.3992806877
  H        42.5718531843       18.8517525628        3.2180045798
  H        44.6937808199       18.8638254983        1.8929231635
  H        44.0331274551       17.3595419006        6.8558060234
  H        20.2883768838       17.9181096465        3.4252746357
  H        46.0347262118       15.3873025973       12.0307154982
  H        43.9015885495       15.3297953820       10.7380971791
  H        42.5143892292       18.7876987062       12.8872226208
  H        44.6545427621       18.8321170821       14.1795145260
  H        44.0103942554       17.3248989677        9.2954637168
  H        46.1996181487       26.6828550233       12.6182647993
  H        52.7413536440       21.0626959250        0.1998279360
  H        14.8801553843       19.6726395630       11.8906601538
  H        17.0806855955       19.7430791366       10.7100713813
  H        18.3336264641       16.2259131535       12.8441398043
  H        16.1353573280       16.1792823338       14.0344909674
  H        16.9402110636       17.7073404762        9.2892008828
  H        52.3228123252       21.6734449694       14.2890457815
  H        52.0135055109       21.7023436902        1.5007181222
  H        49.0676427697       18.6076906386       13.1988020873
  H        13.2478687073       19.0158682853       15.9721760588
  H        29.9693603152       12.4490551314        4.2020964157
  H        28.9077768122       10.5210189574        5.3896703289
  H        25.2619356155       11.1967009206        3.2120873148
  H        26.3407365717       13.1154305727        2.0252337250
  H        27.1888175230       11.6679651088        6.7867785046
  H        30.9680485385       22.7829443551        4.0504056803
  H        31.9756328765       24.6673353735        5.3446243216
  H        35.6419237998       24.2022644044        3.1438448122
  H        34.6106665639       22.3314509719        1.8394571999
  H        33.6545421368       23.6009150696        6.7594546017
  H        25.7286526565        8.5888620547        3.4006569006
  H        30.9282030882       22.7507885770       11.9755603584
  H        31.9569527203       24.6043366117       10.6531870161
  H        35.6267328003       24.1097174481       12.8413465912
  H        34.5825826270       22.2557970854       14.1577084268
  H        33.6455001533       23.5755009540        9.2014795726
  H        40.5834021484       17.0743749650       12.6560202091
  H        32.5038998245       14.1744620994        0.2523382098
  H        29.8896742264       12.5392103018       11.8896665180
  H        28.8651331845       10.6304468227       10.6523963002
  H        25.2015993716       11.1905888588       12.8344227964
  H        26.2470416074       13.0885169138       14.0815677457
  H        27.1732059132       11.6870268720        9.2244671711
  H        33.2547994540       14.2390512158       14.4060499558
  H        33.4114297828       14.4268018925        1.5899574515
  H        32.0815992109       18.5857747291       13.1602062999
  H        30.2441472082       14.1990758482        0.0562463489
  H        16.1182279463        2.9636080595        4.1345378892
  H        14.9531974700        4.8207730226        5.3273080706
  H        17.3670121588        7.6861551275        3.2156347089
  H        18.5155676908        5.8185945289        2.0157986833
  H        16.7537548532        5.7397366823        6.7766502199
  H        44.8280580053       32.1403491684        3.9823201314
  H        45.9373438976       30.3414405818        5.3117785021
  H        43.6826942800       27.3782351135        3.1574449787
  H        42.5999502894       29.1901649904        1.8148770697
  H        44.2302666399       29.4366584581        6.7740418152
  H        14.8518341584        8.5467250096        3.3684615854
  H        44.8995719265       32.2341332988       11.9264716184
  H        46.0245268027       30.4131089863       10.6469440192
  H        43.7640607819       27.4840920208       12.8407097724
  H        42.6462066951       29.3178035819       14.1197836043
  H        44.2683798608       29.4704109899        9.2131377781
  H        35.0855866214       26.6195262789       12.6308325762
  H        36.6050757231       35.1342671939        0.1856864761
  H        16.1435921414        3.0131271927       11.8991621473
  H        14.9740797500        4.8565297099       10.6833861791
  H        17.3964956380        7.7473803832       12.7498667256
  H        18.5434956394        5.8934551758       13.9774882671
  H        16.7647864239        5.7556147800        9.2141922347
  H        36.2787327217       34.4826065994       14.2680702767
  H        36.3810965440       34.2092434390        1.5046396630
  H        40.5807310838       33.2032757246       13.1484775490
  H        17.4708046526        1.9478464699       15.9690527857
  H        28.9276442486       19.1567155312        4.4393344331
  H        28.8004975106       19.0209035739       11.8878210624
  H        32.1819094611       16.3011706605        9.7908562328
  H        31.3051738659       15.6059103881        4.5383444051
  H        28.6289317979       17.2492477704        6.7765781507
  H        32.5066721919       14.0533590956        7.2390454624
  H        30.3114098375       20.0085662130       10.0854309495
  H        33.4865066237       17.1077573300        9.4258532157
  H        29.7910295921       15.7673338842        9.7094139576
  H        18.8542355649        0.8693731613        4.3405048869
  H        40.5278282901       35.2291359873       11.9468670966
  H        42.3245867618       34.4193245662       11.5852887959
  H        22.0878154399        0.6925540207        4.3565533053
  H        11.5964841357       18.7132316246        4.3878311342
  H        52.2650781630       18.4311428335       11.6722214488
  H        49.2545899818       16.4771889482       11.5795544740
  H        10.1512608255       15.7982572574        4.2973855971
  H        50.8502123086       17.6926382159       11.9490259637
  H        10.0465108518       17.3947018187        4.0569981188
  H        20.2154979550        0.0025320775        4.0470163275
  H        39.1836919746       36.1244792911       11.6811886664
  H        32.1643625195       18.6032813059        8.0191411518
 Ni        30.3507671753       17.7693637911       10.8325962730
 Ni        31.5454020439       16.3505410686        7.5777706027
 Ni        29.8487857371       18.7445046527        7.9102788659
 Ni        30.1030949080       17.3262455612        5.1577770120
  O        10.6499585385       14.3651706583       13.4807206096
  O        12.6131513508       14.6574947244       14.5788064853
  O        49.1479469753       16.8458411849       15.9845135861
  O        50.3502913464       20.9358541768       13.6428975722
  O        48.3485848860       20.5933470444       14.6607616783
  O        11.0516593926       17.0538555115       14.4956037157
  O        50.3209120851       20.8816926288        2.4119801764
  O        48.3467124401       20.5867602757        1.3321945499