     572
 i =       18, E =     -4777.6021775301
  C        11.8539051695       14.0500569648       13.7361372902
  C        12.4459679726       12.8820809060       13.0208256988
  C        11.6891316689       12.1654054886       12.0811426350
  C        12.2594680414       11.1002251730       11.3878304816
  C        13.5995372612       10.7256551885       11.6112449475
  C        14.3371939699       11.4265546565       12.5833132721
  C        13.7703542344       12.4942247642       13.2755852234
  C        14.2346640783        9.6331328050       10.8362272101
  C        14.2296679932        9.6405030029        9.4144405741
  C        13.7169055679       10.7427720620        8.6604945632
  C        49.1236784588       21.2260026393       13.8648772118
  C        48.5455949158       22.4010490583       13.1486294433
  C        49.2916407750       23.0655793487       12.1623328144
  C        48.7168792241       24.1023935219       11.4312181506
  C        47.3828126314       24.4952686248       11.6552550135
  C        46.6574796741       23.8464104754       12.6725571775
  C        47.2231164422       22.8002857867       13.3975048662
  C        46.7506287171       25.5745217596       10.8608758297
  C        46.7363919785       25.5431220875        9.4391720646
  C        47.2379052751       24.4290928551        8.6951797141
  C        14.8329503772        8.5533998636        8.7015241458
  C        14.8660620766        8.5813351652       11.5127156920
  C        49.1112660983       21.2015592707        2.1520174399
  C        48.5194280726       22.3592685062        2.8802436495
  C        49.2582232108       23.0257277019        3.8698581434
  C        48.6723074603       24.0554137303        4.6009800179
  C        47.3407743084       24.4478703826        4.3617308905
  C        46.6242150353       23.7976356878        3.3393353614
  C        47.2031500089       22.7636591489        2.6094740871
  C        46.6983475010       25.5213210272        5.1512835275
  C        46.7082692817       25.5152592147        6.5727825482
  C        47.2253523371       24.4161718558        7.3286517930
  C        40.6140080125       17.1229873623        7.3273061894
  C        40.6375982020       17.1594158822        4.5178382986
  C        11.8818078325       14.0881333064        2.2963397374
  C        12.4593308538       12.8985859056        2.9871268572
  C        11.6987349152       12.1699654254        3.9145722516
  C        12.2590289204       11.0830282327        4.5812178312
  C        13.5977932027       10.7062706414        4.3538073727
  C        14.3394831098       11.4186030031        3.3934252739
  C        13.7803936560       12.5042327685        2.7227428385
  C        14.2269168056        9.6078906850        5.1256261638
  C        14.2257804589        9.6278712685        6.5475301360
  C        13.7164517406       10.7372264004        7.2943665327
  C        22.5086304325        3.2436720452       13.7501392189
  C        23.2110944323        4.3459588399       13.0389967346
  C        24.2103604437        4.0650661977       12.0963361459
  C        24.8326877883        5.1041666052       11.4104457411
  C        24.4797531093        6.4455356477       11.6581043668
  C        23.5080813873        6.7173269934       12.6381188339
  C        22.8816115508        5.6798914166       13.3225828961
  C        25.0820136643        7.5526377498       10.8817179923
  C        25.0551499867        7.5452973277        9.4603617262
  C        24.3560987027        6.5434348225        8.7144002657
  C        38.2981749933       31.9277117838       13.8455752300
  C        37.5665991328       30.8368989859       13.1375874387
  C        36.6013848819       31.1399999287       12.1648668610
  C        35.9846545037       30.1187964120       11.4469309243
  C        36.3136561974       28.7698181617       11.6837912302
  C        37.2456324812       28.4743728248       12.6965517806
  C        37.8669349132       29.4938213610       13.4136304225
  C        35.7125585343       27.6785037878       10.8842586293
  C        35.7384545498       27.6950613993        9.4623650655
  C        36.4442144162       28.6962920081        8.7237250657
  C        25.6757374398        8.6171088829        8.7412003426
  C        25.6771467194        8.6282633433       11.5535591748
  C        38.3206620715       31.9594622007        2.1590596306
  C        37.5977015187       30.8865002196        2.9046460587
  C        36.6647058286       31.1999319107        3.9051623082
  C        36.0508730743       30.1840260399        4.6357756180
  C        36.3453450759       28.8292488595        4.3838753157
  C        37.2506197645       28.5277526625        3.3477121480
  C        37.8691242309       29.5388016625        2.6172711174
  C        35.7313113172       27.7334935922        5.1711139951
  C        35.7483623993       27.7235540952        6.5938005883
  C        36.4491537190       28.7096915712        7.3569188774
  C        46.1095878325       26.6073656048        7.2826037474
  C        46.0617911853       26.5678710278        4.4744581222
  C        22.4575628288        3.2538794565        2.2634707375
  C        23.1504126665        4.3607242545        2.9854468303
  C        24.1494087052        4.0746061484        3.9288182209
  C        24.7791799570        5.1048463029        4.6218630646
  C        24.4220528686        6.4497175251        4.3993506900
  C        23.4420289820        6.7293765432        3.4286060557
  C        22.8083142005        5.6988791618        2.7364343350
  C        25.0518827087        7.5486320282        5.1709584818
  C        25.0398487531        7.5422590551        6.5930380383
  C        24.3464683002        6.5436284462        7.3478238065
  C        26.5939878077       17.8482412726       13.7767528776
  C        25.2902958280       17.9045081722       13.0493456479
  C        25.0420501437       18.8815471567       12.0734424928
  C        23.8269686893       18.8974220490       11.3906749402
  C        22.8311849570       17.9353321013       11.6566322737
  C        23.0791285403       16.9786122524       12.6585210515
  C        24.2940443663       16.9581281175       13.3393373384
  C        21.5583409574       17.9130731083       10.8946742998
  C        21.5590261014       17.8764898091        9.4730020608
  C        22.7642008729       17.7364614885        8.7151103737
  C        34.4123230102       17.2222398215       13.9025331843
  C        35.7048375619       17.1477714252       13.1639472069
  C        35.8926628827       16.1853902807       12.1598959295
  C        37.0760142867       16.1575236586       11.4266038778
  C        38.0971158713       17.0966713334       11.6716245077
  C        37.9078197739       18.0422882907       12.6974547667
  C        36.7237860939       18.0746337792       13.4287085557
  C        39.3536600515       17.0991201845       10.8888051646
  C        39.3519613712       17.1255881502        9.4674754180
  C        38.1468865909       17.2574683031        8.7077429446
  C        20.3133450309       17.8951062723        8.7642523064
  C        20.3340391993       17.9203332199       11.5772671463
  C        34.4452861785       17.2409723928        2.1855661655
  C        35.7472758562       17.1564022853        2.9118301620
  C        35.9587993772       16.1824096061        3.8988262249
  C        37.1475937967       16.1666045723        4.6246582380
  C        38.1565053327       17.1196276834        4.3817962908
  C        37.9521138330       18.0640372570        3.3581760437
  C        36.7626743568       18.0857177243        2.6348828878
  C        39.4038015902       17.1437289769        5.1791826631
  C        39.3782970530       17.1514085640        6.6008914934
  C        38.1595481412       17.2685184816        7.3412339730
  C        35.1158597421       26.6461733020        7.2993006371
  C        35.1265802761       26.6690849756        4.4904610201
  C        26.5804434500       17.7891529178        2.3699524914
  C        25.2633245424       17.8360765769        3.0686415868
  C        24.9974107568       18.8269208733        4.0255756169
  C        23.7717770193       18.8515400414        4.6849596652
  C        22.7826298264       17.8844820789        4.4151365790
  C        23.0423097594       16.9217984829        3.4224278269
  C        24.2673745044       16.8957471522        2.7585865730
  C        21.5159922062       17.8617576792        5.1836717443
  C        21.5372669903       17.8473918726        6.6056852900
  C        22.7535436031       17.7210489686        7.3490618888
  C        14.0414677463       17.8239417526        2.2959113351
  C        15.3437183546       17.8732117841        3.0223927183
  C        15.6007310940       18.8702508911        3.9758046749
  C        16.8092383968       18.8847438068        4.6686459261
  C        17.7915623782       17.9020635825        4.4317193635
  C        17.5376739393       16.9263906099        3.4495607770
  C        16.3285949185       16.9076221194        2.7583054505
  C        19.0600276842       17.8786591408        5.1993638592
  C        19.0561392862       17.8737235902        6.6214046487
  C        17.8478949284       17.7795733723        7.3817324485
  C        46.7980624162       17.2137963853        2.1592490808
  C        45.5128779795       17.1632130598        2.9170929140
  C        45.3019711983       16.1836479351        3.9001892360
  C        44.1220075644       16.1713212039        4.6402376579
  C        43.1153673815       17.1298417577        4.4098440808
  C        43.3211460078       18.0852266040        3.3958017923
  C        44.5018899541       18.1016000485        2.6570748986
  C        41.8610250104       17.1441044147        5.1989782048
  C        41.8626904581       17.1386414577        6.6216224343
  C        43.0690324195       17.2298655235        7.3850910944
  C        20.3021097200       17.8801590887        7.3297892074
  C        20.2840205298       17.8564458122        4.5168091753
  C        46.7779136070       17.2250949095       13.8857476315
  C        45.4689738107       17.1124214973       13.1764527598
  C        45.2501275061       16.1141022565       12.2144909159
  C        44.0597087639       16.0840022131       11.4910271494
  C        43.0551992225       17.0461486007       11.7139326286
  C        43.2618669927       18.0091471741       12.7200596006
  C        44.4540122782       18.0469698756       13.4381612830
  C        41.8093602786       17.0705832139       10.9121237845
  C        41.8360973128       17.0988684026        9.4902475605
  C        43.0563226289       17.2084319907        8.7517803182
  C        46.1274793428       26.6226097836        8.7172589530
  C        46.1379156361       26.6420504965       11.5271668689
  C        14.0292032916       17.8003918123       13.7039545050
  C        15.3536215366       17.8765794997       13.0212901716
  C        15.6231254431       18.8928382962       12.0915561644
  C        16.8501294384       18.9329958587       11.4338926216
  C        17.8355903916       17.9560230697       11.6804222021
  C        17.5737951223       16.9703875432       12.6495715365
  C        16.3476734365       16.9281099344       13.3095580732
  C        19.1019087856       17.9323962804       10.9101510576
  C        19.0779070382       17.9015999543        9.4887810091
  C        17.8584603276       17.7923046927        8.7477505685
  C        28.8061334204       14.0856550095        2.3698594557
  C        28.1923120105       12.9181730412        3.0708710587
  C        28.9027462180       12.1945278541        4.0404056989
  C        28.3010802112       11.1194429256        4.6915760159
  C        26.9725811211       10.7445126487        4.4045312993
  C        26.2834084187       11.4508617192        3.4019903879
  C        26.8827891783       12.5244170843        2.7469982899
  C        26.3004728693        9.6644101312        5.1655202198
  C        26.2797641313        9.6917859773        6.5872023804
  C        26.7731376343       10.8081902625        7.3336131489
  C        32.1385728100       21.2469099542        2.1582807389
  C        32.7163606655       22.4167097245        2.8851086420
  C        31.9690627724       23.0889075798        3.8643544064
  C        32.5409581856       24.1312892643        4.5898140410
  C        33.8721975066       24.5283721958        4.3548745711
  C        34.5993841402       23.8750649798        3.3425059533
  C        34.0310106063       22.8295718828        2.6190542455
  C        34.5085254810       25.6015940803        5.1518707033
  C        34.5138326842       25.5672732549        6.5728112081
  C        34.0093632215       24.4499674635        7.3107635820
  C        25.6718597823        8.6127518479        7.3066447012
  C        25.6676425891        8.6099535161        4.4936182874
  C        32.1027360718       21.2317161024       13.8861360790
  C        32.6950989812       22.3753055345       13.1352845517
  C        31.9544833884       23.0363260673       12.1432684202
  C        32.5312802282       24.0654421227       11.4037916611
  C        33.8612675053       24.4633196006       11.6427000873
  C        34.5845358805       23.8161815057       12.6623784266
  C        34.0122231919       22.7806798575       13.3954196932
  C        34.4974782084       25.5456565147       10.8594522320
  C        34.5066906903       25.5386382257        9.4382825132
  C        34.0053961849       24.4361288567        8.6769887754
  C        40.6005184822       17.1056524282        8.7622931400
  C        40.5754461273       17.0869515079       11.5723701175
  C        28.7166486404       14.0958573448       13.7730823693
  C        28.1118771774       12.9391646409       13.0480517250
  C        28.8409269997       12.2417120088       12.0722947528
  C        28.2585931796       11.1778150682       11.3870886377
  C        26.9290892011       10.7869893989       11.6456808591
  C        26.2187861536       11.4710294103       12.6504722777
  C        26.7982681393       12.5354102587       13.3387596694
  C        26.2862464428        9.6931976473       10.8771106690
  C        26.2744065414        9.7069602780        9.4547597535
  C        26.7690246521       10.8159919261        8.6993542122
  C        18.1326421127        3.1798281074        2.3203464680
  C        17.3951474157        4.2727565609        3.0165763431
  C        16.3766862756        3.9884518805        3.9397540417
  C        15.7242149719        5.0247589876        4.6045640649
  C        16.0716949817        6.3702837094        4.3683343465
  C        17.0605508117        6.6453123169        3.4056342161
  C        17.7144910428        5.6119154528        2.7395903692
  C        15.4440337576        7.4750021206        5.1328750834
  C        15.4591234221        7.4740524325        6.5546276636
  C        16.1613670112        6.4809963751        7.3078794017
  C        42.9173190989       31.8535709035        2.0746250008
  C        43.6103131526       30.7602615868        2.8193066406
  C        44.5611139684       31.0799153769        3.8015495709
  C        45.1669687884       30.0748867091        4.5496065427
  C        44.8421039342       28.7214310705        4.3339725261
  C        43.9147909763       28.4079129417        3.3214227261
  C        43.3039597782       29.4133210057        2.5739729316
  C        45.4606679230       27.6426534739        5.1390444368
  C        45.4658187231       27.6672243098        6.5612933445
  C        44.7797309471       28.6753311987        7.3087553082
  C        14.8290860311        8.5458960573        7.2672053952
  C        14.8486419973        8.5467089622        4.4543795722
  C        42.9437393205       31.9591219325       13.8046502352
  C        43.6803261422       30.8799322969       13.0858953729
  C        44.6437743610       31.1803668251       12.1109468945
  C        45.2590336765       30.1577306349       11.3922715275
  C        44.9322034726       28.8088961231       11.6337910858
  C        43.9980819741       28.5157402336       12.6453525585
  C        43.3763544360       29.5361672254       13.3583572593
  C        45.5377659109       27.7094487914       10.8487690563
  C        45.5073121092       27.7024146313        9.4274621325
  C        44.8011633501       28.6931824755        8.6750423874
  C        35.1120608615       26.6311134137        8.7340478396
  C        35.1097351322       26.6020422930       11.5440793366
  C        18.1504342460        3.2479460844       13.6990202714
  C        17.4171210068        4.3397617247       12.9971550794
  C        16.4038635923        4.0414367548       12.0731142604
  C        15.7491268564        5.0681139550       11.3973538972
  C        16.0997816780        6.4152840126       11.6156181915
  C        17.0895371850        6.7050485037       12.5727056643
  C        17.7436334857        5.6804281699       13.2524638894
  C        15.4649924155        7.5079111871       10.8417837761
  C        15.4703814255        7.4909316981        9.4205805364
  C        16.1675657800        6.4898071299        8.6735602721
  H        10.6572471634       12.4622303704       11.9068381957
  H        11.6688879862       10.5438260312       10.6630462752
  H        15.3737354051       11.1485209175       12.7621381554
  H        14.3433369068       13.0555075076       14.0096765952
  H        13.3507493935       11.6152547505        9.1938410688
  H        50.3166131542       22.7523783346       11.9788883842
  H        49.3010177889       24.6198322897       10.6728332800
  H        45.6248897826       24.1379247165       12.8518371259
  H        46.6564236594       22.2742566833       14.1623089315
  H        47.6075050514       23.5631467480        9.2370266563
  H        14.8473115720        8.5730391476       12.6010461001
  H        50.2787518659       22.7064975630        4.0678024387
  H        49.2481877647       24.5749974960        5.3642060305
  H        45.5928377363       24.0879637801        3.1518469481
  H        46.6454197439       22.2371029257        1.8386445733
  H        47.5847685086       23.5395235401        6.7972979604
  H        40.6462133538       17.1280499001        3.4299498508
  H        48.6867300296       14.0950218769       15.7949662009
  H        10.6650300777       12.4607978651        4.0876957428
  H        11.6634549486       10.5146820031        5.2924793431
  H        15.3745307291       11.1374554364        3.2104573498
  H        14.3557592982       13.0706353033        1.9943206193
  H        13.3505743129       11.6062312932        6.7556889121
  H        47.9298971079       14.2128382123        1.7168277685
  H        47.7799482001       14.3723829669       14.4892378937
  H        49.0770283717       18.5556195240        2.8693708875
  H        10.4131368307       14.1334140294        0.0060139310
  H        24.4688847448        3.0260211217       11.9049270363
  H        25.6059268500        4.8871192507       10.6770135116
  H        23.2267918114        7.7500613296       12.8319750258
  H        22.1097501006        5.8788222659       14.0619712778
  H        23.7960917965        5.7851805410        9.2541109662
  H        36.3622154221       32.1826579111       11.9696328248
  H        35.2368702084       30.3567495607       10.6935996436
  H        37.5060257809       27.4354636253       12.8883209487
  H        38.6123760140       29.2729479932       14.1738968293
  H        37.0133523896       29.4433403448        9.2693276824
  H        25.7122651132        8.6092094741       12.6413886339
  H        36.4478261496       32.2449332679        4.1137757020
  H        35.3265656085       30.4341878944        5.4075974874
  H        37.4901017560       27.4860239584        3.1449680306
  H        38.5908885982       29.3059559717        1.8380127873
  H        37.0239094164       29.4663876336        6.8307446738
  H        46.0851074710       26.5737403028        3.3864190051
  H        44.6694871521       35.1174900354       15.8087075337
  H        24.4279289244        3.0361193006        4.0933985677
  H        25.5595914571        4.8773676775        5.3448532088
  H        23.1546365594        7.7636573160        3.2508096710
  H        22.0363603066        5.9090562123        1.9998278868
  H        23.7785303377        5.7855198299        6.8161040472
  H        44.9573376615       34.3883305998        1.6954381629
  H        44.9006300015       34.2050927909       14.4873083420
  H        40.6617115279       33.2063034104        2.8537352965
  H        23.1506413685        1.9569939276        0.0107133835
  H        25.8105810638       19.6235490556       11.8680672983
  H        23.6353301360       19.6612509864       10.6401323349
  H        22.3232099627       16.2255855203       12.8716653795
  H        24.4992211015       16.2075480788       14.0987407460
  H        23.7031212215       17.6103762424        9.2461452637
  H        35.0980415050       15.4678461006       11.9680430099
  H        37.2227071957       15.4015982749       10.6580983035
  H        38.6877691376       18.7760960349       12.8891642447
  H        36.5599155794       18.8174286705       14.2058867000
  H        37.2063787327       17.3791611801        9.2375456307
  H        20.3408487357       17.9689889867       12.6647616309
  H        35.1730002996       15.4572535828        4.0976732493
  H        37.3093634543       15.4091178163        5.3883042829
  H        38.7233346207       18.8058991038        3.1610316147
  H        36.5863741574       18.8332119979        1.8651276550
  H        37.2289679212       17.3984678573        6.7963672930
  H        35.0913548455       26.6976830184        3.4030289355
  H        28.4947103623       21.0848707718       15.8963286655
  H        25.7619381667       19.5704149558        4.2382904419
  H        23.5663425507       19.6240502311        5.4226329398
  H        22.2871863962       16.1690642366        3.2047863623
  H        24.4811249305       16.1392529485        2.0073345257
  H        23.6843108908       17.5824618358        6.8072435763
  H        28.9668329041       21.7197706319        1.7822855250
  H        29.1915342383       21.7207938927       14.5744758649
  H        32.1013957363       18.5210070535        2.9892991624
  H        27.3439865414       19.0636443093        0.0936706663
  H        14.8437826375       19.6305726674        4.1549660707
  H        17.0063129711       19.6644776538        5.4011564759
  H        18.2860540433       16.1594089893        3.2608253259
  H        16.1193010517       16.1421675701        2.0148267185
  H        16.9054750954       17.6651860668        6.8540975817
  H        46.0844437563       15.4513247514        4.0851235354
  H        43.9630216725       15.4059570111        5.3967320490
  H        42.5532835465       18.8340663869        3.2126419442
  H        44.6751088442       18.8543144111        1.8914459270
  H        44.0122085903       17.3481577941        6.8593253217
  H        20.2767150119       17.8911094012        3.4288186107
  H        46.0299338224       15.3782188292       12.0318801329
  H        43.8960311974       15.3099571003       10.7444597293
  H        42.4913677509       18.7550117207       12.9041255692
  H        44.6328487934       18.8119403075       14.1899980133
  H        43.9894279736       17.3094123820        9.2984680210
  H        46.1770612901       26.6683134316       12.6145663139
  H        52.7442447538       21.0633583324        0.1974494770
  H        14.8605930156       19.6449273436       11.9015943493
  H        17.0573731913       19.7235984674       10.7158126785
  H        18.3275655209       16.2114717724       12.8486362992
  H        16.1296010782       16.1530570148       14.0403235929
  H        16.9243494450       17.6876346726        9.2915236433
  H        52.3292387986       21.6755120128       14.2899152891
  H        52.0168001991       21.7062790315        1.4992684883
  H        49.0668531008       18.6074561563       13.1986452606
  H        13.2476028072       19.0178800644       15.9717634354
  H        29.9215974307       12.4920041273        4.2770134106
  H        28.8555409805       10.5578540721        5.4403157623
  H        25.2564395931       11.1746271399        3.1710811678
  H        26.3432950332       13.0884582749        1.9903290825
  H        27.1305441377       11.6799812013        6.7938228799
  H        30.9442545340       22.7740336271        4.0509303508
  H        31.9572480192       24.6544605270        5.3441861498
  H        35.6294780511       24.1719543185        3.1559025597
  H        34.5969779381       22.3001762804        1.8560966255
  H        33.6502708264       23.5840719163        6.7621632505
  H        25.7000224010        8.5856414941        3.4057827128
  H        30.9279406980       22.7269331757       11.9602523343
  H        31.9509889190       24.5797574042       10.6406735935
  H        35.6140044540       24.1138049768       12.8498188458
  H        34.5722667652       22.2565887359       14.1663585387
  H        33.6427917159       23.5595008298        9.2061636796
  H        40.5631292125       17.0393984838       12.6596539620
  H        32.5124386765       14.1515577616        0.2511442103
  H        29.8687517323       12.5370045179       11.8738830836
  H        28.8328416418       10.6323874387       10.6414758213
  H        25.1909399667       11.1822533171       12.8606976081
  H        26.2437999234       13.0774885027       14.1012184085
  H        27.1215462976       11.6946084296        9.2310688001
  H        33.2804520270       14.1919194275       14.4105985267
  H        33.4070842674       14.4094529651        1.5986813347
  H        32.0898565187       18.5521347912       13.1618357274
  H        30.2097506521       14.1883510513        0.0636802869
  H        16.1079446974        2.9506810889        4.1244847234
  H        14.9343193678        4.8013582800        5.3185949665
  H        17.3391442394        7.6794687139        3.2142453222
  H        18.4969763320        5.8180350977        2.0133380945
  H        16.7288821022        5.7243791448        6.7743500221
  H        44.7975209856       32.1268612627        3.9756264625
  H        45.9084256634       30.3302261910        5.3034894736
  H        43.6549730681       27.3655794085        3.1482893277
  H        42.5666412677       29.1762809535        1.8103207719
  H        44.2047624058       29.4238914344        6.7711699562
  H        14.8256940176        8.5300857715        3.3661301407
  H        44.8899646622       32.2218860603       11.9168132229
  H        46.0052921269       30.3945497749       10.6370525446
  H        43.7376726671       27.4771899774       12.8394210952
  H        42.6296175822       29.3170250241       14.1177200487
  H        44.2431776496       29.4560976742        9.2100761850
  H        35.0691157396       26.6109296467       12.6316609599
  H        36.6047825060       35.1327509567        0.1855819909
  H        16.1349936365        3.0005267349       11.9073035470
  H        14.9572605956        4.8358565011       10.6883853535
  H        17.3695673456        7.7417990554       12.7468266463
  H        18.5252731190        5.8951329444       13.9771607369
  H        16.7399804054        5.7403002780        9.2119661438
  H        36.2816429768       34.4795956986       14.2711383659
  H        36.3810945640       34.2108604040        1.5060952390
  H        40.5803386510       33.2028634922       13.1457462557
  H        17.4854929401        1.9461174987       15.9716660748
  H        28.7710645364       18.9496825879        4.3350797252
  H        29.7918856060       19.9193710745       11.6371288090
  H        31.3475431904       15.5675474020        4.4721252685
  H        28.2931344335       17.3656205658        6.7707453431
  H        31.3929417768       19.7624264353        9.5420938809
  H        29.1593582468       16.4780023274        9.3785870351
  H        18.8586665055        0.8674413519        4.3441222674
  H        40.5265390434       35.2340071705       11.9470478169
  H        42.3206952128       34.4151525946       11.5879294072
  H        22.0870710851        0.6942891655        4.3527055047
  H        11.5996731137       18.7095624951        4.3857128978
  H        52.2651264123       18.4295175340       11.6713449869
  H        49.2556531241       16.4766355852       11.5774399742
  H        10.1500664184       15.7991490924        4.2981123450
  H        50.8501625105       17.6939906348       11.9502059442
  H        10.0480117267       17.3940560642        4.0560047474
  H        20.2228845287        0.0053208861        4.0461151486
  H        39.1804973369       36.1228099558       11.6800413855
  H        32.5591920891       18.0836321768        7.0321943243
 Ni        30.5281248932       17.9083085221       10.8813891648
 Ni        30.7692054976       16.3158627179        7.5717703221
 Ni        29.8910679625       18.7860773153        7.8615657677
 Ni        29.9981070914       17.2281933200        5.1044957905
  O        10.6459097312       14.3635643411       13.4771613434
  O        12.6057740998       14.6524417152       14.5806797698
  O        49.1439362939       16.8423404604       15.9837738836
  O        50.3523682430       20.9392642911       13.6454325802
  O        48.3443406896       20.5945606859       14.6573345527
  O        11.0522102486       17.0508113197       14.4943251393
  O        50.3211693938       20.8853910983        2.4136766325
  O        48.3422220995       20.5899639877        1.3321867852
  O        49.5413173258       18.2474129201        2.0744024411
  O        12.3587500751       18.6258112516        0.0036653457
  O        48.6934071644       14.1491659291       14.7460770765