     576
 i =      101, E =     -4779.9747557488
  C        11.8589122487       14.0534423100        5.7414823580
  C        12.4562010894       12.8905793266        5.0230011103
  C        11.7041606379       12.1717589304        4.0814987609
  C        12.2801501415       11.1094568054        3.3890060096
  C        13.6207310599       10.7393594746        3.6163430889
  C        14.3542758585       11.4428915695        4.5895879844
  C        13.7817761886       12.5079847244        5.2812713365
  C        14.2595946406        9.6482587345        2.8429715977
  C        14.2538050638        9.6553994572        1.4212442422
  C        13.7406866612       10.7573788567        0.6671115696
  C        49.1269729295       21.2331765644        5.8796388130
  C        48.5502686662       22.4011604575        5.1525644599
  C        49.3001905720       23.0682219010        4.1713163386
  C        48.7332731600       24.1073590143        3.4380929021
  C        47.4028671000       24.5092939778        3.6669809322
  C        46.6720819900       23.8607526544        4.6808363503
  C        47.2345116362       22.8158547589        5.4101977931
  C        46.7725369684       25.5869346991        2.8697242189
  C        46.7613658940       25.5572922049        1.4479666935
  C        47.2613311284       24.4422644789        0.7043916583
  C        14.8567888892        8.5684389752        0.7080734707
  C        14.8906620460        8.5965197587        3.5197047186
  C        49.1133075278       21.2035231180       10.1453312341
  C        48.5279961408       22.3650204407       10.8724020860
  C        49.2670860821       23.0254694530       11.8655951035
  C        48.6908035788       24.0600880321       12.5970203893
  C        47.3605517495       24.4572366452       12.3584867100
  C        46.6403436764       23.8126845260       11.3345815400
  C        47.2138532368       22.7767264681       10.6028317095
  C        46.7220299693       25.5321260993       13.1495816523
  C        46.7335816626       25.5282782126       14.5712962561
  C        47.2490447005       24.4290380597       15.3276302478
  C        40.6352986391       17.1200752613       15.3237466181
  C        40.6563662521       17.1637504620       12.5149015607
  C        11.8828520211       14.0861197304       10.2852856316
  C        12.4711932853       12.9095881182       10.9889868905
  C        11.7130710476       12.1770369030       11.9151646959
  C        12.2786177413       11.0939650580       12.5834265456
  C        13.6170327097       10.7188311594       12.3514336048
  C        14.3555035344       11.4336181754       11.3903913191
  C        13.7911369907       12.5154651256       10.7178568563
  C        14.2497379424        9.6216477396       13.1220204887
  C        14.2485950507        9.6419299262       14.5438921391
  C        13.7395193616       10.7513321487       15.2908393208
  C        22.5143740870        3.2431667057        5.7591911449
  C        23.2348341172        4.3471596888        5.0728246088
  C        24.1702305937        4.0722262085        4.0626435863
  C        24.7819783600        5.1148110887        3.3770516852
  C        24.4898800822        6.4616255277        3.6911953998
  C        23.5976036924        6.7227765523        4.7527146351
  C        22.9688150235        5.6811113513        5.4239468792
  C        25.0669875089        7.5712346042        2.9248044146
  C        25.0625770282        7.5498243676        1.4700302640
  C        24.3449514452        6.5900441976        0.7410092238
  C        38.3032474495       31.9311094594        5.8491209275
  C        37.5745510127       30.8426519284        5.1380723175
  C        36.6094837525       31.1484438812        4.1665561326
  C        35.9915350931       30.1295411884        3.4474078191
  C        36.3251340363       28.7808739109        3.6785701129
  C        37.2617451915       28.4822474040        4.6857014490
  C        37.8831501553       29.4998907755        5.4042593199
  C        35.7198854258       27.6910900713        2.8820835894
  C        35.7418872792       27.7100373608        1.4609206049
  C        36.4436922677       28.7144604247        0.7227587441
  C        25.7067048463        8.6090121501        0.7523514755
  C        25.6253357958        8.6671248673        3.5900140426
  C        38.3282963658       31.9633703474       10.1560308317
  C        37.6026719788       30.8920433757       10.8965888949
  C        36.6691736925       31.2045706743       11.8965748488
  C        36.0541212210       30.1887742595       12.6254717966
  C        36.3589529246       28.8355095485       12.3778394337
  C        37.2702014611       28.5327670979       11.3477067547
  C        37.8870342569       29.5451664354       10.6197345399
  C        35.7471688311       27.7392757871       13.1627130896
  C        35.7556500137       27.7348534950       14.5845937407
  C        36.4500165210       28.7265301700       15.3461264188
  C        46.1354403232       26.6207957251       15.2815183709
  C        46.0881302025       26.5805946829       12.4736186724
  C        22.4622895914        3.2554813355       10.2530841583
  C        23.1575880977        4.3648812041       10.9651742600
  C        24.0965234852        4.0865633708       11.9732650009
  C        24.7090316643        5.1216234910       12.6702511930
  C        24.4190903077        6.4731948173       12.3733831028
  C        23.5165305705        6.7403179726       11.3208053940
  C        22.8875377127        5.7043047498       10.6366642242
  C        25.0221820726        7.5745938686       13.1384510275
  C        25.0408198503        7.5508358331       14.5952379676
  C        24.3326559810        6.5919857916       15.3335324154
  C        26.6209934863       17.8610753665        5.7854492212
  C        25.3124694181       17.9113310084        5.0628118174
  C        25.0566653193       18.9131318118        4.1129751091
  C        23.8440298542       18.9407123939        3.4266010748
  C        22.8504352954       17.9699486262        3.6676818021
  C        23.1027026121       16.9908972438        4.6475358261
  C        24.3172865156       16.9579086895        5.3316143312
  C        21.5776109586       17.9620774499        2.9020784758
  C        21.5777039455       17.9492313530        1.4792048148
  C        22.7837120865       17.8320588248        0.7187006066
  C        34.4412199368       17.1932640685        5.9224299290
  C        35.7357045852       17.1399321089        5.1809335873
  C        35.9431239283       16.1629321219        4.1948449510
  C        37.1221302410       16.1488090167        3.4552089655
  C        38.1259246757       17.1096802759        3.6838617686
  C        37.9222076423       18.0665288941        4.6961281811
  C        36.7397910938       18.0866255295        5.4321384447
  C        39.3795884167       17.1165756434        2.8969550366
  C        39.3758137958       17.1286424867        1.4755219399
  C        38.1684788910       17.2433731321        0.7169793383
  C        20.3312431456       17.9671535266        0.7699544038
  C        20.3523360310       17.9590727762        3.5835731234
  C        34.4795015869       17.2440019310       10.1784447318
  C        35.7829392395       17.1696600843       10.9012975186
  C        36.0010075584       16.1758977844       11.8673116227
  C        37.1854770587       16.1562922188       12.5980704143
  C        38.1798219629       17.1295326294       12.3810795506
  C        37.9685183250       18.0987083448       11.3829880537
  C        36.7817710375       18.1233765148       10.6551844490
  C        39.4252382414       17.1447009956       13.1783957130
  C        39.3992019075       17.1437857918       14.5991674153
  C        38.1798756848       17.2487716615       15.3401455485
  C        35.1238026348       26.6569905852       15.2894514174
  C        35.1576428147       26.6680350188       12.4805277393
  C        26.5688253311       17.8282399808       10.3242207244
  C        25.2540610735       17.8793606056       11.0294344965
  C        24.9978563815       18.8847061059       11.9742679615
  C        23.7805443402       18.9181922269       12.6483164939
  C        22.7910194114       17.9451078502       12.4033088315
  C        23.0424559608       16.9640666112       11.4267759575
  C        24.2598789557       16.9293309824       10.7493413747
  C        21.5283610615       17.9329884712       13.1777436852
  C        21.5526731537       17.9327900529       14.5995853696
  C        22.7712581685       17.8240693009       15.3423104191
  C        14.0471174605       17.8299552267       10.2888783111
  C        15.3512021389       17.8909737669       11.0143531946
  C        15.6058096504       18.8994700214       11.9570974729
  C        16.8142491431       18.9261117149       12.6506140453
  C        17.8028308545       17.9470772068       12.4241038453
  C        17.5527653674       16.9623296696       11.4495343044
  C        16.3437966061       16.9313138144       10.7571224063
  C        19.0719043155       17.9371023722       13.1936803633
  C        19.0709401735       17.9419041085       14.6163326299
  C        17.8640568222       17.8445802648       15.3777557589
  C        46.8070951461       17.2198293055       10.1595355650
  C        45.5194808574       17.1616463593       10.9085076725
  C        45.3146268857       16.1853803065       11.8954783119
  C        44.1349647732       16.1709046160       12.6345116700
  C        43.1316712136       17.1329668137       12.4076472467
  C        43.3342405747       18.0896499345       11.3948951233
  C        44.5145245038       18.1079072907       10.6568523901
  C        41.8790556251       17.1446134612       13.1955308100
  C        41.8829811961       17.1381309071       14.6170887588
  C        43.0910314552       17.2320667463       15.3772177495
  C        20.3179268064       17.9577172898       15.3246466869
  C        20.2960276592       17.9153440780       12.5116523223
  C        46.7861153317       17.2302745857        5.8909810722
  C        45.4820945913       17.1224144770        5.1781552055
  C        45.2646886601       16.1242300993        4.2166061399
  C        44.0766007699       16.0971662014        3.4908602336
  C        43.0775942102       17.0649768682        3.7108952000
  C        43.2846344127       18.0318775671        4.7121263024
  C        44.4740735777       18.0656050532        5.4325043296
  C        41.8328384706       17.0885590416        2.9129544208
  C        41.8595844376       17.1077431090        1.4924489852
  C        43.0799513329       17.2151349417        0.7537100880
  C        46.1532017668       26.6371332667        0.7262859162
  C        46.1626478401       26.6560615203        3.5359119842
  C        14.0460263676       17.8332793308        5.7094734462
  C        15.3672331946       17.9124584995        5.0204577339
  C        15.6391631956       18.9336303687        4.0976285392
  C        16.8681863633       18.9768037251        3.4433726104
  C        17.8528937992       17.9978500887        3.6855941636
  C        17.5877948463       17.0055641949        4.6469906125
  C        16.3608913171       16.9620733382        5.3052237611
  C        19.1201222046       17.9793825048        2.9163604741
  C        19.0960004538       17.9624366782        1.4947057731
  C        17.8762408923       17.8538563426        0.7539400648
  C        28.8093589215       14.0854700697       10.3842025952
  C        28.1981373258       12.9088595528       11.0587124549
  C        28.8748591799       12.2285855052       12.0843039187
  C        28.2624859099       11.1682884993       12.7414147751
  C        26.9600074408       10.7440113558       12.3875235960
  C        26.3191617500       11.3928117665       11.3104227730
  C        26.9232217719       12.4655545595       10.6658078118
  C        26.2709946473        9.6895844716       13.1382479301
  C        26.2786252069        9.7031422546       14.5932113382
  C        26.7294526819       10.8131747406       15.3227627448
  C        32.1788294602       21.2455151463       10.1401694513
  C        32.7709893963       22.4137742889       10.8581754297
  C        32.0174597710       23.0886977626       11.8311530440
  C        32.5819845176       24.1300623510       12.5611829724
  C        33.9159666525       24.5233089016       12.3397313277
  C        34.6521318961       23.8663599208       11.3356262223
  C        34.0896507164       22.8201216861       10.6066351362
  C        34.5398621226       25.6005498556       13.1408411146
  C        34.5275960568       25.5750132715       14.5625313024
  C        34.0101514086       24.4649442317       15.3022027887
  C        25.6999285942        8.6061480782       15.3086367256
  C        25.5997671929        8.6590776467       12.4703655468
  C        32.1106663101       21.2363634266        5.8866316419
  C        32.6997320468       22.3879886223        5.1436604759
  C        31.9576935820       23.0580440899        4.1586651851
  C        32.5356729973       24.0868663360        3.4195492422
  C        33.8695170835       24.4765414041        3.6483598035
  C        34.5951400945       23.8211165947        4.6616853310
  C        34.0217818554       22.7858159581        5.3954345913
  C        34.5052612511       25.5582647750        2.8618441942
  C        34.5090160665       25.5537885099        1.4399650416
  C        33.9999026209       24.4549286976        0.6789179113
  C        40.6230277572       17.1082762533        0.7679620630
  C        40.6020295664       17.1126339645        3.5774085337
  C        28.7375651135       14.0620317765        5.8233618278
  C        28.1287637836       12.9146987204        5.0966417705
  C        28.8289927115       12.2594535582        4.0699116261
  C        28.2346752782       11.2169082303        3.3684504121
  C        26.9265682186       10.7807443650        3.6814111471
  C        26.2542504324       11.4123237392        4.7503249843
  C        26.8404502548       12.4693208402        5.4378461444
  C        26.2697724569        9.7108443971        2.9195474658
  C        26.2822191710        9.7125768727        1.4643001290
  C        26.7313986148       10.8185567713        0.7290697335
  C        18.1350428966        3.1795027950       10.3176855605
  C        17.4041583088        4.2761057629       11.0157940076
  C        16.3881875938        3.9968496663       11.9427643450
  C        15.7392245747        5.0363055645       12.6059316249
  C        16.0902936269        6.3803102342       12.3665980843
  C        17.0800611724        6.6506506570       11.4034676138
  C        17.7303140720        5.6138711306       10.7386328549
  C        15.4653290221        7.4877456637       13.1295973761
  C        15.4806214848        7.4873472608       14.5513465732
  C        16.1818851651        6.4936100345       15.3046381695
  C        42.9457011102       31.8598144789       10.0727070957
  C        43.6460453164       30.7722589560       10.8171547399
  C        44.5914272144       31.0935647393       11.8033417743
  C        45.1971893975       30.0880019511       12.5509940869
  C        44.8710378885       28.7349167235       12.3359003786
  C        43.9453910872       28.4205978739       11.3225224913
  C        43.3364817963       29.4257574630       10.5745815354
  C        45.4886906089       27.6555501347       13.1389708888
  C        45.4926647573       27.6809351318       14.5606710910
  C        44.8053969865       28.6888114832       15.3073694590
  C        14.8522788397        8.5603132526       15.2636022743
  C        14.8704019324        8.5596636563       12.4509079286
  C        42.9462921925       31.9616559028        5.8091501506
  C        43.6918202795       30.8853741289        5.0957784749
  C        44.6561707653       31.1912630526        4.1232701780
  C        45.2776900656       30.1716834206        3.4054870840
  C        44.9541239625       28.8213641004        3.6432927496
  C        44.0209664562       28.5236996240        4.6543673762
  C        43.3927422196       29.5404809273        5.3665943742
  C        45.5630841554       27.7239644233        2.8579575238
  C        45.5331565688       27.7172004964        1.4366587750
  C        44.8266547108       28.7073534075        0.6837669455
  C        35.1157070765       26.6451007599        0.7343171204
  C        35.1217987321       26.6134099191        3.5441566939
  C        18.1481374512        3.2469471461        5.7066090775
  C        17.4292839890        4.3436178242        4.9971927243
  C        16.4128537581        4.0520024202        4.0750688387
  C        15.7641144532        5.0823436020        3.3996266820
  C        16.1195986971        6.4276162717        3.6208507271
  C        17.1123274827        6.7113576151        4.5766038096
  C        17.7604532835        5.6827302263        5.2564426668
  C        15.4885750057        7.5229766728        2.8482726333
  C        15.4931335406        7.5054863797        1.4271189497
  C        16.1887932212        6.5029925591        0.6804592996
  H        10.6720226534       12.4660129446        3.9047689439
  H        11.6935417982       10.5510293986        2.6626857686
  H        15.3913266309       11.1681733258        4.7710350103
  H        14.3516391342       13.0711129997        6.0164774819
  H        13.3744030644       11.6299399244        1.2002087949
  H        50.3228043839       22.7479803687        3.9863875521
  H        49.3197080856       24.6224378532        2.6803481932
  H        45.6427513261       24.1618878838        4.8643128690
  H        46.6636604730       22.2908886939        6.1725984159
  H        47.6300183068       23.5759117924        1.2460143015
  H        14.8720152573        8.5884231636        4.6080354262
  H        50.2870127270       22.7023732147       12.0607421607
  H        49.2691567800       24.5753285658       13.3606996990
  H        45.6111360633       24.1103618606       11.1451355919
  H        46.6532026433       22.2549040813        9.8309146800
  H        47.6079570691       23.5519982435       14.7966951738
  H        40.6635876829       17.1377596049       11.4269422333
  H        48.6872776065       14.0949074531        7.8000998574
  H        10.6799246227       12.4671358049       12.0927420404
  H        11.6863514367       10.5241516158       13.2961915019
  H        15.3906152822       11.1546791340       11.2042405767
  H        14.3640516200       13.0842591053        9.9893202424
  H        13.3729673866       11.6199993718       14.7521059894
  H        47.9302998290       14.2183946116        9.7108696711
  H        47.7802032759       14.3741396550        6.4955180392
  H        49.0847804060       18.5528142714       10.8676891042
  H        10.4164596383       14.1342302844        7.9986481112
  H        24.3901402529        3.0338576934        3.8247781756
  H        25.5040305102        4.9001466486        2.5926330282
  H        23.3619792404        7.7549860868        5.0029312533
  H        22.2462871089        5.8757190230        6.2127426710
  H        23.7567326242        5.8471549268        1.2711292173
  H        36.3685598659       32.1918991746        3.9778058418
  H        35.2418892677       30.3688188901        2.6963820176
  H        37.5263934443       27.4430572422        4.8696929191
  H        38.6315776502       29.2788813719        6.1615177069
  H        37.0096654870       29.4641645386        1.2679640752
  H        25.6465525881        8.6571563103        4.6783795663
  H        36.4466202452       32.2496045408       12.0998813754
  H        35.3246741910       30.4362054233       13.3935406885
  H        37.5171124349       27.4917043988       11.1503584794
  H        38.6130524231       29.3170753531        9.8431789278
  H        37.0219448292       29.4850681767       14.8195351287
  H        46.1097672071       26.5882382691       11.3855873553
  H        44.6705899674       35.1162198277        7.8104301684
  H        24.3347169410        3.0481860547       12.1920039444
  H        25.4381981738        4.8957837352       13.4449799028
  H        23.2773593997        7.7743012028       11.0809776413
  H        22.1651597934        5.9104795329        9.8503028577
  H        23.7343377133        5.8510999443       14.8118910458
  H        44.9548353930       34.3900920905        9.6950826759
  H        44.9002925423       34.2056662648        6.4889299282
  H        40.6651014702       33.2095168162       10.8521749289
  H        23.1517178082        1.9574134430        8.0052387205
  H        25.8201857893       19.6658801584        3.9291901950
  H        23.6512538864       19.7242467260        2.6968428525
  H        22.3477098225       16.2320131559        4.8427860367
  H        24.5223710847       16.1880117379        6.0718908992
  H        23.7250949897       17.7153026049        1.2477609194
  H        35.1626910204       15.4262344710        4.0194508412
  H        37.2829148113       15.3842583537        2.6982148814
  H        38.6904487032       18.8156745674        4.8763632098
  H        36.5646855314       18.8394731539        6.1972819419
  H        37.2277997736       17.3573106589        1.2481420344
  H        20.3585918108       17.9921769224        4.6716763087
  H        35.2232088241       15.4355741904       12.0397790211
  H        37.3551779790       15.3828098538       13.3439586418
  H        38.7314195522       18.8553888527       11.2117623192
  H        36.5957389615       18.8877669726        9.9043228428
  H        37.2477485339       17.3653143667       14.7949831427
  H        35.1330672237       26.6915974376       11.3927152683
  H        28.5056711003       21.0889141563        7.9719146962
  H        25.7660145169       19.6311437279       12.1630677639
  H        23.5812809962       19.7030533017       13.3747628471
  H        22.2869362824       16.2056295386       11.2320103933
  H        24.4697305194       16.1603108839       10.0096672056
  H        23.7033336097       17.7012099650       14.7990436056
  H        28.9909082384       21.7263576566        9.7702753010
  H        29.1529133971       21.7479548994        6.6185442248
  H        32.1226856806       18.5812699430       10.9592944529
  H        27.3925399833       19.0697013133        8.0844768616
  H        14.8461162883       19.6582772669       12.1308033392
  H        17.0076851631       19.7147818842       13.3745809447
  H        18.3052896700       16.1982509548       11.2655131530
  H        16.1399593120       16.1579040361       10.0203525571
  H        16.9215070831       17.7283018912       14.8507461260
  H        46.0967012336       15.4516606585       12.0759729910
  H        43.9751979706       15.4059704493       13.3912118229
  H        42.5671911898       18.8404357822       11.2167366388
  H        44.6885693123       18.8602079294        9.8911378453
  H        44.0329131228       17.3500703243       14.8490910715
  H        20.2897881638       17.9380653082       11.4233436232
  H        46.0427198506       15.3853106454        4.0389840041
  H        43.9100097399       15.3236894900        2.7442963781
  H        42.5172524333       18.7828497645        4.8878966127
  H        44.6570647149       18.8313570266        6.1822737959
  H        44.0134020998       17.3190006858        1.2992325070
  H        46.1997586241       26.6827133883        4.6233459526
  H        52.7412883866       21.0627015056        8.1946882024
  H        14.8774528392       19.6871663217        3.9099542022
  H        17.0782717740       19.7717473337        2.7310179592
  H        18.3395675216       16.2434715696        4.8418319511
  H        16.1411262095       16.1832024871        6.0313762110
  H        16.9428208969       17.7446840332        1.2978566202
  H        52.3226589335       21.6734115361        6.2942947355
  H        52.0135088438       21.7022916961        9.4956653398
  H        49.0680658851       18.6077504567        5.2039457102
  H        13.2478151266       19.0163006053        7.9775362720
  H        29.8786668443       12.5503169275       12.3524935428
  H        28.7896554636       10.6439298268       13.5350206625
  H        25.3165637533       11.0802847708       11.0260561607
  H        26.4162500083       12.9961629826        9.8635976743
  H        27.0570221836       11.7015422216       14.7919328894
  H        30.9928954030       22.7708041286       12.0094268384
  H        31.9920573074       24.6535310969       13.3104374408
  H        35.6844973745       24.1616392361       11.1594628550
  H        34.6628956474       22.2878892693        9.8508990296
  H        33.6434708754       23.6007204817       14.7561647624
  H        25.6167843633        8.6481240925       11.3818142004
  H        30.9289468379       22.7565199605        3.9770884676
  H        31.9531447374       24.6065155723        2.6619597269
  H        35.6276814763       24.1120388368        4.8435840498
  H        34.5865912595       22.2568555227        6.1596254777
  H        33.6251472877       23.5829198197        1.2074303469
  H        40.5942465488       17.0746582117        4.6650392130
  H        32.5183248609       14.1432832509        8.2497415057
  H        29.8428564200       12.5800170837        3.8416283834
  H        28.7851612146       10.7100041858        2.5792488710
  H        25.2443540880       11.0936976271        4.9999199601
  H        26.3102843555       12.9813694756        6.2373476401
  H        27.0594795679       11.7105848487        1.2540723341
  H        33.2992551613       14.1947562670        6.4431347138
  H        33.4093907367       14.4029456848        9.6056495797
  H        32.1800651845       18.5837035113        5.2400509887
  H        30.2232695851       14.1887405118        8.0725781994
  H        16.1172867079        2.9600356877       12.1291446355
  H        14.9495609083        4.8162341565       13.3211493589
  H        17.3620769700        7.6837240224       11.2108033184
  H        18.5129725209        5.8171380870       10.0116316973
  H        16.7476283877        5.7356735612       14.7711218510
  H        44.8276546974       32.1406534885       11.9775724146
  H        45.9369697547       30.3417843062       13.3070163266
  H        43.6829952706       27.3784966862       11.1521415703
  H        42.6000674156       29.1905037935        9.8096946422
  H        44.2300153762       29.4365757830       14.7690860632
  H        14.8468213207        8.5428066296       11.3626839483
  H        44.8995188948       32.2339737830        3.9317151253
  H        46.0244285383       30.4129474416        2.6520920180
  H        43.7642935773       27.4839436809        4.8461789528
  H        42.6465222687       29.3177741749        6.1253473550
  H        44.2681146794       29.4701643750        1.2184315456
  H        35.0883306422       26.6223524086        4.6319504753
  H        36.6076744264       35.1345723902        8.1845602366
  H        16.1411682401        3.0123751374        3.9065875782
  H        14.9708155312        4.8552453659        2.6907068751
  H        17.3966181579        7.7468326510        4.7522110632
  H        18.5446028150        5.8933918983        5.9797722830
  H        16.7599393040        5.7525831083        1.2189660799
  H        36.2778323172       34.4835501365        6.2734300991
  H        36.3852659832       34.2075093755        9.4997508545
  H        40.5789742821       33.2024018843        5.1536810015
  H        17.4733546247        1.9459096066        7.9767505558
  H        28.9737141299       19.3351061525       12.4510387317
  H        30.2081022583       19.9310515539        3.9091397146
  H        30.5875242329       15.5496340961        3.9127215900
  H        31.2360234671       15.5067223666       12.4749117747
  H        27.9081265152       17.7879221679       14.4980921778
  H        29.3587608662       15.3656698527       14.5271745157
  H        32.1804422136       19.3250045043        1.3961915887
  H        32.2855256540       16.0092520335        1.8938204243
  H        28.6479418888       18.2173886261        2.9556444534
  H        32.3909159288       18.4498847551       13.9743386383
  H        18.9047272557        0.8523027891       12.3617542342
  H        40.5246487139       35.2298868015        3.9516353875
  H        42.3226802768       34.4166264710        3.5911656116
  H        22.0951317049        0.7013578621       12.3414315852
  H        11.5967674766       18.7129545057       12.3826857932
  H        52.2649406446       18.4313353381        3.6770371540
  H        49.2552779529       16.4768837080        3.5844529648
  H        10.1503745669       15.7983174541       12.2927661964
  H        50.8502530908       17.6924179164        3.9541574474
  H        10.0462363201       17.3946307777       12.0519243134
  H        20.2921553855        0.0042279877       12.0338874945
  H        39.1819128039       36.1257454270        3.6898212584
 Ni        30.9025347553       17.7892866559        2.9160381005
 Ni        31.0678572483       16.5276396871       -0.1658154197
 Ni        29.2173422210       19.4422769315       -0.3329453212
 Ni        30.0517451990       17.4076884422       13.0756246663
  O        10.6500191074       14.3651169565        5.4858723181
  O        12.6132298369       14.6574947371        6.5838780627
  O        49.1481415364       16.8458673107        7.9897246666
  O        50.3503166833       20.9357513475        5.6479937229
  O        48.3485865218       20.5933188902        6.6658814116
  O        11.0519873362       17.0536918973        6.5008451704
  O        50.3210121858       20.8816778956       10.4068770597
  O        48.3467440237       20.5867948739        9.3271618597