     574
 i =      260, E =     -4778.8689889283
  C        11.8588336217       14.0534931231        5.7415301599
  C        12.4563315143       12.8905874988        5.0232503629
  C        11.7046395510       12.1716259273        4.0816118322
  C        12.2810375400       11.1094219413        3.3892932897
  C        13.6216509360       10.7397110611        3.6169639678
  C        14.3548081364       11.4432974437        4.5904281986
  C        13.7818991259       12.5082722423        5.2819177910
  C        14.2611507499        9.6490167819        2.8436001300
  C        14.2564419374        9.6569528730        1.4219041274
  C        13.7431264847       10.7590173867        0.6680095251
  C        49.1269139243       21.2332410448        5.8796886076
  C        48.5501891809       22.4012267569        5.1526068961
  C        49.3001673463       23.0684537371        4.1715194386
  C        48.7332211641       24.1075680158        3.4382856683
  C        47.4027640891       24.5093748830        3.6670738911
  C        46.6718880898       23.8606289187        4.6807234489
  C        47.2343556550       22.8157530543        5.4100964022
  C        46.7724647927       25.5870326239        2.8698052562
  C        46.7612865555       25.5573191136        1.4480499049
  C        47.2611687802       24.4421935585        0.7045699927
  C        14.8604155228        8.5706449903        0.7086305712
  C        14.8920725013        8.5971581451        3.5202539788
  C        49.1133179214       21.2035019477       10.1454099567
  C        48.5279391812       22.3648463926       10.8726384398
  C        49.2671416895       23.0255434319       11.8655744420
  C        48.6907963423       24.0601165693       12.5970087574
  C        47.3603782467       24.4568546711       12.3587610844
  C        46.6400003783       23.8119804990       11.3351973956
  C        47.2135639612       22.7760529901       10.6034607719
  C        46.7218778666       25.5318299553       13.1497321095
  C        46.7334929452       25.5281323541       14.5714321780
  C        47.2488648609       24.4288861303       15.3278102264
  C        40.6376350781       17.1574663614       15.3211153754
  C        40.6571523288       17.1833696278       12.5126315038
  C        11.8829986139       14.0865043573       10.2855159136
  C        12.4723293587       12.9107374422       10.9897260623
  C        11.7148313279       12.1774725177       11.9158056407
  C        12.2814557358       11.0950480114       12.5842296206
  C        13.6202995037       10.7213834878       12.3524034146
  C        14.3582800749       11.4370177639       11.3916570831
  C        13.7927990345       12.5181536421       10.7189643906
  C        14.2539399853        9.6246831673       13.1228360748
  C        14.2525782061        9.6446066286       14.5446727129
  C        13.7426177024       10.7535078524       15.2917548179
  C        22.5139309969        3.2442739736        5.7537014280
  C        23.2335335827        4.3471060802        5.0558528988
  C        24.2325323426        4.0623112148        4.1130145359
  C        24.8654147706        5.0984050774        3.4313063751
  C        24.5153236905        6.4418634540        3.6720233437
  C        23.5447631678        6.7181789564        4.6523488331
  C        22.9072297983        5.6838538687        5.3327093538
  C        25.1258348938        7.5451753649        2.8954024245
  C        25.0988366938        7.5364632522        1.4738836851
  C        24.3946997343        6.5378772926        0.7287712896
  C        38.3023855258       31.9302430391        5.8495255408
  C        37.5714279361       30.8409048158        5.1404548034
  C        36.6063801253       31.1453443388        4.1683283400
  C        35.9875159165       30.1256486177        3.4506060300
  C        36.3198022630       28.7767473412        3.6831038195
  C        37.2554226992       28.4794865116        4.6917222701
  C        37.8777837521       29.4979489938        5.4087938403
  C        35.7170712598       27.6859026639        2.8848758786
  C        35.7451927291       27.7043515723        1.4634871347
  C        36.4465496295       28.7104265516        0.7268954543
  C        25.7227049384        8.6054276525        0.7532179021
  C        25.7243716795        8.6197275238        3.5651053436
  C        38.3290012012       31.9633192489       10.1557514374
  C        37.6061919263       30.8912553507       10.8979048047
  C        36.6743275771       31.2023043877       11.8997812973
  C        36.0620362278       30.1853623028       12.6294519238
  C        36.3680810355       28.8326550891       12.3803804647
  C        37.2780568917       28.5314259520       11.3486963195
  C        37.8921729321       29.5449133945       10.6201509912
  C        35.7587241680       27.7346666164       13.1644563762
  C        35.7665755312       27.7292985528       14.5863543876
  C        36.4564899674       28.7224509589       15.3501771044
  C        46.1354655047       26.6207608914       15.2815623456
  C        46.0880181643       26.5802342974       12.4736652049
  C        22.4617241189        3.2556668914       10.2578401267
  C        23.1577144095        4.3626043697       10.9808715447
  C        24.1610321319        4.0734955297       11.9195911110
  C        24.7917030162        5.1013729318       12.6162433087
  C        24.4392153295        6.4482151543       12.3972448172
  C        23.4589877246        6.7305373560       11.4269039908
  C        22.8237709753        5.7029270597       10.7304481602
  C        25.0735570358        7.5440541712       13.1714925625
  C        25.0726703404        7.5350652213       14.5943947851
  C        24.3803908624        6.5381338623       15.3519322795
  C        26.6186720893       17.8614624551        5.7813447365
  C        25.3135683498       17.9044109947        5.0515641625
  C        25.0408408485       18.9139096474        4.1146890016
  C        23.8282855780       18.9301568065        3.4273937324
  C        22.8495076121       17.9423414475        3.6586264393
  C        23.1177774038       16.9548622627        4.6251207392
  C        24.3333425272       16.9318581154        5.3076905483
  C        21.5752083799       17.9283842839        2.8956895056
  C        21.5758523717       17.9106082801        1.4734403741
  C        22.7821403404       17.7914315840        0.7135541240
  C        34.4490004954       17.1996032232        5.9244999309
  C        35.7415448559       17.1564796986        5.1787925044
  C        35.9662000689       16.1709562610        4.2047836294
  C        37.1432856182       16.1703736724        3.4619284086
  C        38.1302202646       17.1507963618        3.6790861662
  C        37.9114077614       18.1154014343        4.6803213915
  C        36.7292737382       18.1237554519        5.4170215430
  C        39.3843411230       17.1630814530        2.8933711069
  C        39.3795722501       17.1752688004        1.4724348718
  C        38.1720485561       17.2942753568        0.7147332140
  C        20.3296668945       17.9277474230        0.7645617021
  C        20.3508155805       17.9288015642        3.5783333739
  C        34.4801927102       17.2463945554       10.1789737273
  C        35.7837964921       17.1777578413       10.9017458114
  C        36.0026231391       16.1920377673       11.8750953585
  C        37.1873626272       16.1791113787       12.6053147956
  C        38.1806752327       17.1512139622       12.3798046086
  C        37.9689134164       18.1122050726       11.3742957891
  C        36.7814507599       18.1302300424       10.6476138990
  C        39.4262349658       17.1725620867       13.1765415134
  C        39.4012132960       17.1825184223       14.5972355725
  C        38.1822067282       17.2971882477       15.3377374557
  C        35.1382025958       26.6485789002       15.2895892140
  C        35.1713044912       26.6631028869       12.4805868721
  C        26.5736252424       17.8267593448       10.3254134492
  C        25.2570933124       17.8739281601       11.0297444303
  C        24.9942812998       18.8777022691       11.9740082050
  C        23.7759767032       18.9038811957       12.6471190713
  C        22.7921053417       17.9256857690       12.4000713551
  C        23.0494031168       16.9467934290       11.4232658958
  C        24.2681127589       16.9190745780       10.7479241054
  C        21.5286703252       17.9063747468       13.1733066679
  C        21.5520045829       17.8964526424       14.5948521241
  C        22.7705878386       17.7835218613       15.3371336631
  C        14.0466836649       17.8289546245       10.2884739486
  C        15.3512242646       17.8861947123       11.0130150326
  C        15.6076732267       18.8887006158       11.9613821612
  C        16.8168246314       18.9091726945       12.6538626271
  C        17.8035891861       17.9301885783       12.4197758480
  C        17.5520431258       16.9522395051       11.4389895925
  C        16.3422821135       16.9270111249       10.7482469945
  C        19.0724657989       17.9125315982       13.1887241046
  C        19.0705733744       17.9080571493       14.6111050856
  C        17.8634465088       17.8074957138       15.3720206068
  C        46.8072370195       17.2203782212       10.1593831832
  C        45.5197463236       17.1650784745       10.9075684396
  C        45.3132951549       16.1930095028       11.8982476640
  C        44.1333568667       16.1837723390       12.6368362354
  C        43.1320043969       17.1466708122       12.4051746678
  C        43.3358453198       18.0984056544       11.3881928870
  C        44.5163882716       18.1117447693       10.6509837164
  C        41.8799507478       17.1658781004       13.1929797528
  C        41.8850235077       17.1675059192       14.6142380458
  C        43.0938147706       17.2599592468       15.3734685855
  C        20.3171231760       17.9195966950       15.3195635055
  C        20.2966885091       17.8945790072       12.5066774561
  C        46.7871093391       17.2317840027        5.8902208378
  C        45.4838689282       17.1308349658        5.1761174968
  C        45.2618087830       16.1369184457        4.2113665972
  C        44.0740491203       16.1193309272        3.4848636745
  C        43.0807685614       17.0926124576        3.7071506975
  C        43.2923785332       18.0549409424        4.7116661997
  C        44.4811417067       18.0790914165        5.4329531868
  C        41.8364464572       17.1254198696        2.9096048608
  C        41.8629690037       17.1446877347        1.4892716717
  C        43.0835272463       17.2464534729        0.7500101382
  C        46.1532329879       26.6371898586        0.7263204065
  C        46.1625935535       26.6561828825        3.5359495748
  C        14.0453069662       17.8308673753        5.7081297692
  C        15.3657681133       17.9031239884        5.0164003527
  C        15.6397720377       18.9173986737        4.0867560082
  C        16.8685475845       18.9529253197        3.4314187933
  C        17.8510796124       17.9733048195        3.6798532459
  C        17.5838383236       16.9878104693        4.6475151189
  C        16.3570670791       16.9517620274        5.3063370780
  C        19.1183684552       17.9477440487        2.9109979157
  C        19.0945387523       17.9253353728        1.4894293554
  C        17.8750204918       17.8153502862        0.7482784303
  C        28.8099821157       14.0926302156       10.3928155226
  C        28.1969752962       12.9169348374       11.0794818548
  C        28.9284284084       12.1633922905       12.0095216713
  C        28.3318020317       11.0870796827       12.6616804168
  C        26.9900706711       10.7392448738       12.4058990910
  C        26.2799324116       11.4726056550       11.4386725538
  C        26.8742064892       12.5498997621       10.7859109360
  C        26.3257072612        9.6564106809       13.1672372037
  C        26.3216241085        9.6790294392       14.5882602124
  C        26.8304106865       10.7899297635       15.3331731236
  C        32.1820123145       21.2433224483       10.1401753026
  C        32.7789174373       22.4090573847       10.8602269840
  C        32.0274811806       23.0887133247       11.8311897473
  C        32.5967144846       24.1278757864       12.5611049071
  C        33.9323375454       24.5152167590       12.3393865220
  C        34.6666712527       23.8533781455       11.3376824672
  C        34.0998399714       22.8081589312       10.6104472935
  C        34.5582590500       25.5922381432       13.1394857887
  C        34.5495883926       25.5638903782       14.5607611176
  C        34.0435652228       24.4466840481       15.2975986768
  C        25.7137900547        8.6008946593       15.3082101403
  C        25.6852440217        8.6079160630       12.4945026868
  C        32.1064195584       21.2257180785        5.8862105529
  C        32.6993812072       22.3753803545        5.1373492501
  C        31.9618770698       23.0366004860        4.1427470393
  C        32.5414111372       24.0653680418        3.4029849743
  C        33.8717008986       24.4642388359        3.6415537716
  C        34.5916558944       23.8155915494        4.6628443809
  C        34.0171979735       22.7805683820        5.3967071700
  C        34.5085810506       25.5486888352        2.8592154944
  C        34.5224710400       25.5424558310        1.4376672373
  C        34.0295402836       24.4378193996        0.6741928592
  C        40.6263494826       17.1498849219        0.7649663186
  C        40.6059495901       17.1552222235        3.5746066295
  C        28.7408214448       14.0701656599        5.8251145208
  C        28.1334145968       12.9208726249        5.0872304547
  C        28.8715649562       12.2393409609        4.1075977080
  C        28.2993869660       11.1789700084        3.4085892724
  C        26.9725376496       10.7758439375        3.6615498545
  C        26.2516321708       11.4469626404        4.6672931068
  C        26.8229722555       12.5063139732        5.3701311071
  C        26.3368254701        9.6823524594        2.8876918251
  C        26.3276897657        9.6931265322        1.4654792370
  C        26.8300011192       10.7984540505        0.7091787956
  C        18.1355690728        3.1811895346       10.3171597700
  C        17.4063621756        4.2784287288       11.0157967603
  C        16.3904920383        4.0000967396       11.9431577751
  C        15.7428090878        5.0401058514       12.6066284285
  C        16.0949515639        6.3837964678       12.3671207103
  C        17.0845106778        6.6532938439       11.4035410172
  C        17.7335871758        5.6159267062       10.7385043960
  C        15.4705139271        7.4914459898       13.1301346926
  C        15.4858038392        7.4907494212       14.5518420065
  C        16.1873964913        6.4971543443       15.3050044927
  C        42.9459323203       31.8596055339       10.0728928769
  C        43.6463290896       30.7719035418       10.8168531824
  C        44.5917272286       31.0932429010       11.8030359044
  C        45.1973801519       30.0877101348       12.5507721855
  C        44.8712149155       28.7346195654       12.3356993400
  C        43.9455675642       28.4202604332       11.3223249022
  C        43.3368189087       29.4253944706       10.5742194531
  C        45.4887111524       27.6553088375       13.1389339559
  C        45.4927734158       27.6808857329       14.5606280031
  C        44.8056847224       28.6889280350       15.3072542138
  C        14.8566688405        8.5631364191       15.2642052485
  C        14.8752904067        8.5632346423       12.4515424196
  C        42.9465441810       31.9617000423        5.8089907980
  C        43.6918804695       30.8855390524        5.0956061312
  C        44.6561058937       31.1914846404        4.1229618558
  C        45.2776816637       30.1719007762        3.4052729638
  C        44.9542380166       28.8215571500        3.6432022192
  C        44.0212005899       28.5238706031        4.6543939546
  C        43.3929012666       29.5406290196        5.3665491507
  C        45.5631992770       27.7241462942        2.8579234304
  C        45.5333181013       27.7173741316        1.4366234211
  C        44.8269484303       28.7075590310        0.6836487050
  C        35.1260277680       26.6368510583        0.7344410752
  C        35.1171906758       26.6071913537        3.5442247263
  C        18.1487589846        3.2471162974        5.7065680509
  C        17.4302295058        4.3439386859        4.9972765777
  C        16.4148661530        4.0527183869        4.0738543499
  C        15.7666072382        5.0833662418        3.3984582065
  C        16.1214715002        6.4285718144        3.6210522149
  C        17.1130408521        6.7119250046        4.5781129941
  C        17.7606777097        5.6829845562        5.2578781089
  C        15.4909102250        7.5242540469        2.8486385084
  C        15.4967558396        7.5076096660        1.4275065848
  C        16.1936267431        6.5059740660        0.6808190118
  H        10.6724949618       12.4657151073        3.9046155297
  H        11.6947659046       10.5509094126        2.6627647084
  H        15.3918827124       11.1688088142        4.7720840153
  H        14.3514089939       13.0715498900        6.0172764509
  H        13.3760887842       11.6311314245        1.2013187683
  H        50.3228226996       22.7483068407        3.9866607909
  H        49.3196675867       24.6227699623        2.6806336691
  H        45.6424783442       24.1615678356        4.8640786723
  H        46.6634431330       22.2906133003        6.1723339550
  H        47.6297110120       23.5758238224        1.2462614044
  H        14.8725384645        8.5884515373        4.6085624076
  H        50.2871987266       22.7027156988       12.0604812256
  H        49.2691635590       24.5755821435       13.3605255693
  H        45.6106027737       24.1092295819       11.1461160352
  H        46.6527865810       22.2538796329        9.8318764253
  H        47.6076498773       23.5517770264       14.7968976412
  H        40.6635881156       17.1492897696       11.4249069839
  H        48.6871312202       14.0949277614        7.8000592774
  H        10.6813273642       12.4664616679       12.0931447993
  H        11.6896643051       10.5245650729       13.2968546913
  H        15.3937519763       11.1592326997       11.2057857849
  H        14.3651928802       13.0875849151        9.9905260270
  H        13.3757498447       11.6221074172       14.7531226111
  H        47.9302095446       14.2182794509        9.7108585814
  H        47.7800990275       14.3736951413        6.4953029277
  H        49.0844849408       18.5527368829       10.8676430802
  H        10.4162936501       14.1342289788        7.9986673947
  H        24.4904808384        3.0225599233        3.9246060337
  H        25.6399848267        4.8770362672        2.7002380050
  H        23.2672490807        7.7524669091        4.8448317509
  H        22.1358320674        5.8883435070        6.0711708438
  H        23.8336584772        5.7815593487        1.2698896040
  H        36.3662499668       32.1886048991        3.9773660090
  H        35.2386902851       30.3649816757        2.6987580230
  H        37.5194726122       27.4405020860        4.8778148942
  H        38.6257052627       29.2769405071        6.1665869205
  H        37.0088735193       29.4618790680        1.2734448674
  H        25.7585066632        8.6037669115        4.6529626292
  H        36.4508094468       32.2470018164       12.1038070736
  H        35.3334798366       30.4314871716       13.3987694918
  H        37.5258947103       27.4907508156       11.1504804298
  H        38.6171542392       29.3181932200        9.8422461050
  H        37.0276971217       29.4827300057       14.8252496100
  H        46.1095639805       26.5876882632       11.3856322757
  H        44.6684007569       35.1162646990        7.8139740523
  H        24.4375033562        3.0345894648       12.0844985682
  H        25.5735219749        4.8700689041       13.3365288853
  H        23.1753926893        7.7658036531       11.2485742028
  H        22.0513586739        5.9184378886        9.9957688943
  H        23.8077528350        5.7826525828       14.8218051267
  H        44.9540972484       34.3905159568        9.6952006596
  H        44.9020235109       34.2068483477        6.4907191183
  H        40.6663530984       33.2095741546       10.8532691097
  H        23.1506385184        1.9580574784        8.0053930236
  H        25.7873575229       19.6864980124        3.9444751983
  H        23.6221396379       19.7189759187        2.7069605514
  H        22.3741221142       16.1827722426        4.8120229945
  H        24.5514379137       16.1561275623        6.0381161819
  H        23.7224802993       17.6748087316        1.2443560404
  H        35.2056657349       15.4108380221        4.0422549734
  H        37.3173441270       15.4004316978        2.7133388008
  H        38.6677847610       18.8785334139        4.8519577091
  H        36.5413747829       18.8819226777        6.1738614682
  H        37.2329020950       17.4142835422        1.2473600112
  H        20.3576249883       17.9662082565        4.6662938629
  H        35.2240496086       15.4543773466       12.0545229550
  H        37.3583328913       15.4122143232       13.3576511835
  H        38.7310470422       18.8682200681       11.1969876891
  H        36.5933836138       18.8892182315        9.8919120191
  H        37.2510440992       17.4198627463       14.7917197439
  H        35.1452157034       26.6886550521       11.3928634292
  H        28.5126745831       21.0818327361        7.9836715758
  H        25.7582195518       19.6285292009       12.1630405962
  H        23.5714370217       19.6868081563       13.3742070035
  H        22.2979602216       16.1847433628       11.2268283040
  H        24.4832833502       16.1518772084       10.0079312364
  H        23.7021653148       17.6611057849       14.7926673623
  H        28.9917548564       21.7241390430        9.7689434091
  H        29.1536835120       21.7468356006        6.6206247671
  H        32.1185148098       18.5452723132       10.9761793264
  H        27.4059109070       19.0764265166        8.0786127905
  H        14.8489361004       19.6472016776       12.1405943478
  H        17.0121594179       19.6925593125       13.3830213784
  H        18.3037070654       16.1887260328       11.2492344987
  H        16.1362671125       16.1586511032       10.0068753690
  H        16.9212065769       17.6914234266       14.8443685872
  H        46.0942174133       15.4588652581       12.0820104402
  H        43.9717567963       15.4226428667       13.3969555750
  H        42.5696354552       18.8491837242       11.2065107246
  H        44.6921699589       18.8603729665        9.8821374882
  H        44.0358060258       17.3733785799       14.8445304310
  H        20.2908440187       17.9254009931       11.4185769442
  H        46.0356598758       15.3940052662        4.0320350407
  H        43.9031243210       15.3493342997        2.7357055370
  H        42.5291982050       18.8097419485        4.8892593044
  H        44.6681901641       18.8412192019        6.1853287044
  H        44.0175690842       17.3481259081        1.2949071222
  H        46.1996769834       26.6828357260        4.6233846356
  H        52.7412457947       21.0626190007        8.1947281401
  H        14.8800006067       19.6717834970        3.8945888939
  H        17.0801620539       19.7425458523        2.7136281416
  H        18.3336536517       16.2250061975        4.8470708452
  H        16.1355130972       16.1780582283        6.0374157245
  H        16.9415440164       17.7051267177        1.2919185425
  H        52.3224799131       21.6732855112        6.2942546587
  H        52.0132203801       21.7020484579        9.4956207150
  H        49.0679979958       18.6079782992        5.2040402264
  H        13.2477557343       19.0160455605        7.9771271011
  H        29.9641223383       12.4337905205       12.2037233310
  H        28.9002251003       10.5018480039       13.3813661555
  H        25.2431185914       11.2134610210       11.2341726454
  H        26.3244360075       13.1373234315       10.0545381638
  H        27.1939723796       11.6580230409       14.7916656495
  H        31.0002167316       22.7769428679       12.0055357479
  H        32.0093233540       24.6560623759       13.3090812556
  H        35.7007126873       24.1432364406       11.1623357170
  H        34.6714386696       22.2703183758        9.8574746398
  H        33.6922796551       23.5776913070       14.7484036270
  H        25.7086442881        8.5919928807       11.4062824599
  H        30.9342647000       22.7272625762        3.9637123683
  H        31.9624465232       24.5827649121        2.6408507038
  H        35.6210207923       24.1128482232        4.8526578337
  H        34.5774384187       22.2582531543        6.1688904436
  H        33.6676667429       23.5615613738        1.2041735869
  H        40.5976909961       17.1165964661        4.6622107260
  H        32.5161672891       14.1424212973        8.2598784894
  H        29.8937350624       12.5575696912        3.9138471685
  H        28.8805138346       10.6446320078        2.6600879601
  H        25.2248717079       11.1488849016        4.8694997269
  H        26.2637166916       13.0388734489        6.1358474188
  H        27.1919541406       11.6733788877        1.2411600381
  H        33.2994425546       14.1928920581        6.4453898868
  H        33.4093314396       14.4156144467        9.6046364692
  H        32.1496318855       18.5422416933        5.1945028918
  H        30.2079828805       14.1828952120        8.0839808818
  H        16.1183000060        2.9636081281       12.1294277688
  H        14.9532566180        4.8207971599       13.3221942678
  H        17.3672118572        7.6861360128       11.2106379619
  H        18.5158338758        5.8185728489       10.0108741433
  H        16.7541278486        5.7399538068       14.7714897188
  H        44.8278574510       32.1403438857       11.9773393443
  H        45.9371756758       30.3415048791       13.3067730118
  H        43.6831513676       27.3781579987       11.1519809878
  H        42.6004288007       29.1900553762        9.8093388067
  H        44.2303920351       29.4367385052       14.7689454157
  H        14.8516598351        8.5465231546       11.3633191645
  H        44.8994120563       32.2341848348        3.9313050390
  H        46.0243539984       30.4131787210        2.6518191917
  H        43.7646644035       27.4841029853        4.8463142807
  H        42.6468321474       29.3178406089        6.1254167370
  H        44.2685103953       29.4705025163        1.2182239070
  H        35.0772352192       26.6170672668        4.6318203846
  H        36.6052692990       35.1342682336        8.1805689382
  H        16.1436601270        3.0131579024        3.9042467577
  H        14.9741955920        4.8565885879        2.6884511652
  H        17.3968143363        7.7473552490        4.7548008013
  H        18.5437964522        5.8934421827        5.9823825549
  H        16.7652120264        5.7558510024        1.2192607499
  H        36.2788989979       34.4824910541        6.2731414297
  H        36.3815039193       34.2090216172        9.4993388358
  H        40.5806390779       33.2031102953        5.1532521465
  H        17.4709691404        1.9478971994        7.9741272850
  H        29.0247577477       19.2124236775       12.4880871325
  H        28.8143511214       19.0371257998        3.7944928919
  H        32.4081860477       16.1752163980        3.8658533093
  H        31.4389311990       15.6108177999       12.5475894964
  H        28.2020313387       17.7602479060       14.6658174796
  H        29.8140984135       15.1038996184       14.1625408036
  H        31.9444371101       20.4227955090        1.2590496809
  H        32.3662197683       17.3755441977        1.0705922835
  H        28.5282430099       17.5406997564        1.5179037526
  H        31.5077966953       19.6874610970       13.7626316706
  H        18.8537639087        0.8689657600       12.3354797675
  H        40.5281197890       35.2289150854        3.9519268870
  H        42.3247707376       34.4196296472        3.5898374728
  H        22.0874894391        0.6921067385       12.3516785911
  H        11.5968124569       18.7128397820       12.3826821392
  H        52.2649208458       18.4312000991        3.6771367002
  H        49.2552115793       16.4768586946        3.5845500307
  H        10.1495221963       15.7982017196       12.2931142653
  H        50.8500989126       17.6923987990        3.9542331014
  H        10.0458192789       17.3944280011       12.0519856847
  H        20.2151335151        0.0022206244       12.0419255041
  H        39.1839199181       36.1245086494        3.6863611346
 Ni        30.4306558290       17.3313425403        3.1650975141
 Ni        30.2235457767       16.4702102806        0.0841570507
 Ni        30.2260070305       18.8230233734       -0.2471117627
 Ni        30.4783246202       17.5891928370       13.3211940406
  O        10.6500003492       14.3650794037        5.4858303733
  O        12.6132013811       14.6574954098        6.5839005279
  O        49.1482535395       16.8458315975        7.9897591681
  O        50.3503080477       20.9358653165        5.6480195778
  O        48.3486008082       20.5934018380        6.6659150755
  O        11.0518543745       17.0537898925        6.5006804653
  O        50.3211089934       20.8817151089       10.4068745226
  O        48.3468147430       20.5868536808        9.3272002127