     568
 i =      497, E =     -4744.3987502364
  C        11.8586224345       14.0535440661        5.7416087597
  C        12.4560832563       12.8904768178        5.0233696956
  C        11.7045154720       12.1718713101        4.0813746854
  C        12.2808581982       11.1096548658        3.3890001830
  C        13.6213004822       10.7395524272        3.6169995477
  C        14.3542920437       11.4427487533        4.5908766671
  C        13.7814433051       12.5077338473        5.2824074198
  C        14.2608575064        9.6489142734        2.8435939254
  C        14.2563009020        9.6568982877        1.4218888822
  C        13.7431992934       10.7590412634        0.6679637210
  C        49.1266889776       21.2332625843        5.8797188428
  C        48.5499533576       22.4011334398        5.1526240052
  C        49.3000615385       23.0685867946        4.1717604542
  C        48.7331347155       24.1077160116        3.4385569569
  C        47.4025167650       24.5092256236        3.6670146034
  C        46.6714448138       23.8601567437        4.6803197021
  C        47.2338939289       22.8152643883        5.4096924569
  C        46.7723335580       25.5869555330        2.8697292264
  C        46.7615056012       25.5574412643        1.4479625691
  C        47.2615570595       24.4424070037        0.7044614334
  C        14.8602656960        8.5705647739        0.7086316065
  C        14.8915121091        8.5968833261        3.5202374598
  C        49.1130950773       21.2034874745       10.1453473545
  C        48.5277390516       22.3648150796       10.8724392638
  C        49.2670984161       23.0258157462       11.8650824364
  C        48.6907429578       24.0603512768       12.5965302393
  C        47.3601678086       24.4567931248       12.3586065469
  C        46.6395986464       23.8115740864       11.3353941519
  C        47.2131680725       22.7756764842       10.6036128604
  C        46.7217538259       25.5317844640       13.1496283498
  C        46.7337208066       25.5282570758       14.5713260693
  C        47.2492647440       24.4290944315       15.3277022790
  C        40.6214772995       17.0932711929       15.3098923698
  C        40.6318166500       17.1021424423       12.5003298531
  C        11.8828688445       14.0865413944       10.2854813367
  C        12.4721453552       12.9106190915       10.9896546391
  C        11.7146917761       12.1776346968       11.9159780665
  C        12.2812239853       11.0951511741       12.5844108498
  C        13.6199200064       10.7211379742       12.3523460460
  C        14.3577847648       11.4364276251       11.3912484055
  C        13.7924126614       12.5176244735       10.7185500275
  C        14.2535529617        9.6244278240       13.1227935581
  C        14.2524351047        9.6444967173       14.5446359950
  C        13.7426501025       10.7534899664       15.2917073597
  C        22.5105805900        3.2434988149        5.7528857288
  C        23.2237611659        4.3483183811        5.0515295582
  C        24.2217651243        4.0669763600        4.1069957063
  C        24.8483027668        5.1056651078        3.4235422948
  C        24.4920567147        6.4473200276        3.6647704883
  C        23.5217063352        6.7203106587        4.6459702035
  C        22.8907365654        5.6833693402        5.3280153729
  C        25.0997692994        7.5521699684        2.8891857245
  C        25.0794414510        7.5419879361        1.4676826440
  C        24.3775147730        6.5430320334        0.7209368460
  C        38.2978999926       31.9282695965        5.8519512560
  C        37.5560891964       30.8406968500        5.1504854688
  C        36.5907902115       31.1493027327        4.1794319520
  C        35.9596126863       30.1325909177        3.4681068511
  C        36.2783840414       28.7808373575        3.7042212171
  C        37.2129909518       28.4797198180        4.7130978381
  C        37.8480954875       29.4953862816        5.4240617919
  C        35.6673827918       27.6936909660        2.9049581499
  C        35.7060493317       27.7090889388        1.4832485444
  C        36.4182457684       28.7101494118        0.7500818494
  C        25.7089184584        8.6085351715        0.7483915700
  C        25.6926794843        8.6287726010        3.5606134558
  C        38.3298994946       31.9607362701       10.1601837622
  C        37.6119227461       30.8888468710       10.9091898693
  C        36.6790616230       31.2001622803       11.9106720435
  C        36.0674961192       30.1845004309       12.6435830612
  C        36.3734536836       28.8303322169       12.3998443024
  C        37.2870475836       28.5289993042       11.3708178457
  C        37.9004719854       29.5411625250       10.6388513463
  C        35.7572476611       27.7330019700       13.1822287826
  C        35.7519580760       27.7291805077       14.6048494426
  C        36.4387734102       28.7207001766       15.3734603605
  C        46.1356707978       26.6208662704       15.2814587028
  C        46.0875819061       26.5800053504       12.4735675585
  C        22.4613520067        3.2549400567       10.2567279263
  C        23.1581187593        4.3624139699       10.9786583283
  C        24.1626734507        4.0735526573       11.9158774599
  C        24.7938002006        5.1018481331       12.6114345092
  C        24.4402149463        6.4481316159       12.3919707781
  C        23.4587139608        6.7303966853       11.4231767806
  C        22.8230039351        5.7022579003       10.7280287173
  C        25.0738977369        7.5439672728       13.1663922913
  C        25.0671684391        7.5369087381       14.5889505706
  C        24.3697969303        6.5418064379       15.3441794156
  C        26.6164404059       17.8595383881        5.7827611666
  C        25.3098381021       17.9068731122        5.0589290400
  C        25.0409663925       18.9151730417        4.1194222022
  C        23.8288157318       18.9336004907        3.4319990307
  C        22.8470207085       17.9491172390        3.6645764046
  C        23.1105504101       16.9645161614        4.6357206369
  C        24.3254616243       16.9392760436        5.3190875603
  C        21.5740142941       17.9359518060        2.8997372941
  C        21.5751367209       17.9194108451        1.4772823203
  C        22.7814274917       17.8012474107        0.7174166287
  C        34.4445833621       17.1946916812        5.9251217636
  C        35.7381434155       17.1445858407        5.1823397739
  C        35.9418332525       16.1730617735        4.1897024005
  C        37.1194021288       16.1607033635        3.4477700547
  C        38.1266426771       17.1176979249        3.6793101311
  C        37.9262352449       18.0690988393        4.6976586770
  C        36.7450474161       18.0878415782        5.4361734192
  C        39.3785675132       17.1241340463        2.8886278696
  C        39.3701368771       17.1282640391        1.4666182487
  C        38.1613145675       17.2484646310        0.7112810180
  C        20.3289041484       17.9358877726        0.7681176210
  C        20.3493987185       17.9356912305        3.5818617758
  C        34.4415999439       17.2359285531       10.1910659081
  C        35.7433893107       17.1331942945       10.9103000684
  C        35.9453167455       16.1588037770       11.8991091140
  C        37.1355340501       16.1289907410       12.6217124220
  C        38.1524637078       17.0722601044       12.3753550251
  C        37.9569824719       18.0182446022       11.3515836336
  C        36.7661955129       18.0535463195       10.6326108313
  C        39.4017405153       17.0904083464       13.1683046545
  C        39.3820559951       17.1122667451       14.5897541434
  C        38.1669083593       17.2397638983       15.3343377730
  C        35.1134122810       26.6518064726       15.3052547384
  C        35.1718777704       26.6614295950       12.4956178455
  C        26.5666607717       17.8261867253       10.3227405797
  C        25.2532162113       17.8692512924       11.0302423308
  C        24.9916649652       18.8731953200       11.9748028136
  C        23.7742557687       18.9001996989       12.6487909638
  C        22.7897929134       17.9223563923       12.4029753502
  C        23.0460870511       16.9425231907       11.4266982387
  C        24.2641306101       16.9139835545       10.7501344944
  C        21.5268010898       17.9057333140       13.1767089690
  C        21.5507996705       17.9010236002       14.5983531545
  C        22.7694435813       17.7913188543       15.3409661383
  C        14.0460251789       17.8287276648       10.2889334965
  C        15.3501920353       17.8855385352       11.0148595243
  C        15.6071372193       18.8898148600       11.9611818833
  C        16.8158856303       18.9106727507       12.6544517997
  C        17.8016795340       17.9300248900       12.4233918370
  C        17.5494226544       16.9497221751       11.4451476564
  C        16.3401426216       16.9243601988       10.7534352888
  C        19.0706504958       17.9135278159       13.1924144793
  C        19.0693298789       17.9129642270       14.6148181265
  C        17.8621669939       17.8147559699       15.3758371933
  C        46.8025739162       17.2162300863       10.1570376059
  C        45.5095262851       17.1462912457       10.8976141293
  C        45.3063152128       16.1654305067       11.8808993788
  C        44.1225023450       16.1381515399       12.6134329508
  C        43.1108165817       17.0914972111       12.3854909000
  C        43.3106094562       18.0508385243       11.3741935254
  C        44.4954142414       18.0821784287       10.6425001173
  C        41.8578296872       17.0966885870       13.1756936706
  C        41.8666209605       17.1035579657       14.5978879364
  C        43.0770638704       17.2040287980       15.3534574061
  C        20.3160519311       17.9259316983       15.3231228124
  C        20.2947303314       17.8923894791       12.5102677959
  C        46.7853119459       17.2323856245        5.8866905087
  C        45.4841573039       17.1288922327        5.1668798841
  C        45.2668690937       16.1312624264        4.2042487100
  C        44.0799991521       16.1049473697        3.4759491561
  C        43.0803957695       17.0734784717        3.6923131187
  C        43.2887898312       18.0418333996        4.6923493608
  C        44.4765379797       18.0743027927        5.4161508790
  C        41.8330281421       17.0936257702        2.8967515500
  C        41.8541279501       17.1003821226        1.4754638988
  C        43.0712911563       17.1993025022        0.7304473822
  C        46.1534707035       26.6373095968        0.7262123408
  C        46.1622036369       26.6559729935        3.5358634092
  C        14.0447354531       17.8315082752        5.7089440255
  C        15.3654760804       17.9055514697        5.0181209788
  C        15.6394352150       18.9225993988        4.0916094944
  C        16.8683352984       18.9599697219        3.4367470872
  C        17.8502799304       17.9793508487        3.6828364409
  C        17.5830811559       16.9909758150        4.6474293036
  C        16.3562514234       16.9531692304        5.3058673208
  C        19.1174139664       17.9552677128        2.9141805956
  C        19.0937024524       17.9335671456        1.4927283398
  C        17.8739471203       17.8239872555        0.7519934052
  C        28.8097736636       14.0880707721       10.3895581290
  C        28.1996069405       12.9119882393       11.0739660783
  C        28.9304338197       12.1635908549       12.0084194883
  C        28.3351084432       11.0868273112       12.6603380343
  C        26.9950154306       10.7352620046       12.4017681690
  C        26.2855351839       11.4636809046       11.4301173316
  C        26.8788843004       12.5404996851       10.7761779813
  C        26.3296839608        9.6540262953       13.1641292094
  C        26.3219154067        9.6777701768       14.5851906711
  C        26.8347282664       10.7862069828       15.3313178699
  C        32.1793929376       21.2409769232       10.1492928288
  C        32.7724291951       22.4075977289       10.8677553130
  C        32.0217249002       23.0849166719       11.8411229004
  C        32.5892007240       24.1260571826       12.5693107096
  C        33.9237387618       24.5176282396       12.3471271895
  C        34.6569894818       23.8587002343       11.3420638662
  C        34.0916759180       22.8126097608       10.6148809308
  C        34.5491471900       25.5932013289       13.1510496621
  C        34.5285336128       25.5666904744       14.5731896705
  C        34.0145771436       24.4520624716       15.3087263777
  C        25.7074739917        8.6023189718       15.3036912079
  C        25.6894700100        8.6059094949       12.4905280420
  C        32.0802666203       21.2053538208        5.8814501394
  C        32.6461380334       22.3718927183        5.1422071090
  C        31.9114815766       23.0167774000        4.1350629059
  C        32.4830462214       24.0554504334        3.4019982708
  C        33.8027443168       24.4795572484        3.6560691007
  C        34.5176551832       23.8486863903        4.6928426535
  C        33.9519427095       22.8062363825        5.4212450420
  C        34.4428974712       25.5635244358        2.8737471247
  C        34.4718007880       25.5526865837        1.4512739372
  C        33.9856720229       24.4465372903        0.6854608173
  C        40.6148840784       17.0967171487        0.7548368545
  C        40.6038191205       17.1231885573        3.5648910671
  C        28.7334069416       14.0608956041        5.8221305110
  C        28.1234878583       12.9165822400        5.0828186202
  C        28.8711559492       12.1988043768        4.1364305494
  C        28.2911816615       11.1446993103        3.4348693450
  C        26.9486126341       10.7792363823        3.6578311978
  C        26.2176942093       11.4826148721        4.6335697020
  C        26.7952892711       12.5391304277        5.3351266923
  C        26.3111394358        9.6872909937        2.8835373152
  C        26.3139858280        9.6949361406        1.4618527589
  C        26.8290882219       10.7954639317        0.7073840327
  C        18.1353227123        3.1807693842       10.3171518620
  C        17.4059067293        4.2780404948       11.0157405364
  C        16.3904079555        3.9996306454       11.9434726416
  C        15.7426194829        5.0395818025       12.6069752978
  C        16.0942593677        6.3833302282       12.3670773816
  C        17.0833673577        6.6528973982       11.4030427964
  C        17.7325089974        5.6155825940       10.7379924573
  C        15.4699715796        7.4910538089       13.1301227065
  C        15.4854033356        7.4904796691       14.5518378945
  C        16.1869965132        6.4969007927       15.3050225107
  C        42.9457416985       31.8593839650       10.0728551868
  C        43.6460091374       30.7717249131       10.8168235130
  C        44.5917458863       31.0930157676       11.8027181528
  C        45.1974275110       30.0874597138       12.5503690688
  C        44.8707734977       28.7344208700       12.3356657096
  C        43.9446883032       28.4200888302       11.3226887228
  C        43.3359042274       29.4252558435       10.5746497588
  C        45.4884517832       27.6551660499       13.1388472115
  C        45.4928288187       27.6809087519       14.5605383309
  C        44.8057179475       28.6889378876       15.3071629400
  C        14.8564786926        8.5630076616       15.2641927012
  C        14.8745902974        8.5627702217       12.4515317470
  C        42.9463795605       31.9614516916        5.8089714201
  C        43.6915052183       30.8853504276        5.0954466640
  C        44.6563430558       31.1912454037        4.1233676788
  C        45.2778506542       30.1716543336        3.4056515958
  C        44.9538196792       28.8213469339        3.6430440079
  C        44.0200224411       28.5236860169        4.6535301867
  C        43.3917598010       29.5404568486        5.3657068798
  C        45.5629565415       27.7239913278        2.8578020947
  C        45.5333918854       27.7174003687        1.4365021718
  C        44.8270100270       28.7075928075        0.6835568831
  C        35.0871882929       26.6433133426        0.7507351972
  C        35.0528396617       26.6210255715        3.5610143084
  C        18.1484863378        3.2468597569        5.7066912619
  C        17.4297838973        4.3437352849        4.9974403680
  C        16.4147764737        4.0524164291        4.0736775100
  C        15.7664605528        5.0830169943        3.3982267234
  C        16.1208619296        6.4282802555        3.6211637975
  C        17.1119930119        6.7117059761        4.5786667267
  C        17.7596555355        5.6828216221        5.2584885444
  C        15.4904551339        7.5239985837        2.8486726365
  C        15.4964368874        7.5074352547        1.4275330489
  C        16.1932386766        6.5057570215        0.6808368892
  H        10.6724827214       12.4662338013        3.9041599744
  H        11.6946201768       10.5513939312        2.6622491721
  H        15.3911851546       11.1678261437        4.7729013869
  H        14.3507543870       13.0706734070        6.0181787779
  H        13.3761584547       11.6311579118        1.2012657207
  H        50.3228178716       22.7486541834        3.9871235912
  H        49.3196641490       24.6230827950        2.6810843343
  H        45.6418535454       24.1607196049        4.8632842281
  H        46.6627283644       22.2898955167        6.1715847896
  H        47.6300520730       23.5760005949        1.2461258789
  H        14.8716600228        8.5880291909        4.6085408410
  H        50.2872569712       22.7032070958       12.0597827383
  H        49.2691884393       24.5760115433       13.3598522735
  H        45.6100243396       24.1084389748       11.1466610223
  H        46.6521395386       22.2532340800        9.8323894343
  H        47.6080090279       23.5519619259       14.7968056572
  H        40.6352289788       17.0632413745       11.4126741493
  H        48.6869875155       14.0949929595        7.7999999845
  H        10.6812973169       12.4668961511       12.0935310664
  H        11.6894369384       10.5248896661       13.2972192865
  H        15.3930944125       11.1582569485       11.2050607464
  H        14.3646532588       13.0867881805        9.9897815436
  H        13.3757766991       11.6220763182       14.7530566725
  H        47.9300836245       14.2184932269        9.7107643927
  H        47.7799467479       14.3735253471        6.4951701322
  H        49.0824517878       18.5520106607       10.8669223387
  H        10.4157997807       14.1343776596        7.9987361203
  H        24.4839628736        3.0281768214        3.9191082793
  H        25.6228607018        4.8879092510        2.6913900525
  H        23.2393606292        7.7533779259        4.8379466590
  H        22.1194413751        5.8838712037        6.0676314911
  H        23.8130399433        5.7883161353        1.2607247011
  H        36.3600685820       32.1937975319        3.9837506880
  H        35.2119854988       30.3767957019        2.7166048783
  H        37.4671422162       27.4390917129        4.9038997412
  H        38.5951047237       29.2690732241        6.1812899607
  H        36.9800009287       29.4599193579        1.2994469704
  H        25.7195595640        8.6156228258        4.6487063350
  H        36.4525165405       32.2448471838       12.1115451998
  H        35.3376338836       30.4333164147       13.4108231013
  H        37.5372311827       27.4883041247       11.1754879183
  H        38.6263269427       29.3114049421        9.8625693584
  H        37.0172520066       29.4782260246       14.8524190568
  H        46.1087074061       26.5872300839       11.3855253374
  H        44.6681124729       35.1160398400        7.8139850616
  H        24.4392598004        3.0346473369       12.0806448003
  H        25.5763378961        4.8713268158       13.3312086717
  H        23.1744939853        7.7655545977       11.2452383274
  H        22.0493218053        5.9167116548        9.9943829750
  H        23.7987990067        5.7866186347       14.8118341666
  H        44.9533000459       34.3898411777        9.6947944003
  H        44.9013963858       34.2066301371        6.4906417906
  H        40.6656974928       33.2085545159       10.8529833185
  H        23.1504292097        1.9572928802        8.0050452420
  H        25.7908394253       19.6834443645        3.9449023106
  H        23.6262002070       19.7209821502        2.7090494759
  H        22.3637535363       16.1960619329        4.8249749681
  H        24.5393527971       16.1654964323        6.0527814702
  H        23.7225547375       17.6868367948        1.2473884515
  H        35.1585329310       15.4404690127        4.0097522467
  H        37.2758127294       15.4007929218        2.6852766917
  H        38.6956215296       18.8164250056        4.8805179099
  H        36.5737320766       18.8379697814        6.2048435722
  H        37.2235950607       17.3816630101        1.2432948422
  H        20.3555102779       17.9722206444        4.6698518783
  H        35.1512752721       15.4435222435       12.1006735531
  H        37.2897885833       15.3713059329       13.3868026094
  H        38.7351398709       18.7529260346       11.1554396297
  H        36.5947468130       18.8039892386        9.8647885312
  H        37.2332301350       17.3665336592       14.7936627270
  H        35.1541902634       26.6855549169       11.4076616311
  H        28.5007814043       21.0956209204        7.9011569183
  H        25.7552003540       19.6240368472       12.1642046940
  H        23.5708259845       19.6836718971       13.3755705697
  H        22.2941841053       16.1806355857       11.2314410554
  H        24.4781601200       16.1461385669       10.0104844983
  H        23.7014719517       17.6692904006       14.7971533146
  H        28.9925814851       21.7276902447        9.7547746171
  H        29.1681308491       21.7321720974        6.5583280503
  H        32.0820960070       18.5606252722       10.9974844853
  H        27.4042335338       19.0804337908        8.0855136734
  H        14.8491377939       19.6496265724       12.1379952311
  H        17.0115949338       19.6958052670       13.3816428681
  H        18.3001328383       16.1846307938       11.2579808125
  H        16.1336658426       16.1544230239       10.0138128643
  H        16.9198426596       17.6988838946       14.8482808522
  H        46.0936030042       15.4382038526       12.0649688747
  H        43.9671481650       15.3703110285       13.3681555829
  H        42.5378436113       18.7949877588       11.1927208586
  H        44.6649782262       18.8379689665        9.8791101033
  H        44.0173914845       17.3166586912       14.8214712223
  H        20.2886333401       17.9196691016       11.4220768767
  H        46.0434341930       15.3902226836        4.0289213830
  H        43.9143125311       15.3298604154        2.7308520091
  H        42.5224994503       18.7944035898        4.8661775158
  H        44.6576865266       18.8406131783        6.1658396613
  H        44.0072916583       17.3070843460        1.2708707605
  H        46.1988017185       26.6823907418        4.6233200867
  H        52.7410449863       21.0626176926        8.1946560777
  H        14.8794932861       19.6773431563        3.9015526570
  H        17.0804153903       19.7515213028        2.7212172394
  H        18.3328177133       16.2274868846        4.8445934369
  H        16.1340582196       16.1775208775        6.0346878912
  H        16.9405454054       17.7151073907        1.2960156535
  H        52.3221267655       21.6732020722        6.2944413042
  H        52.0131687170       21.7020534752        9.4956783297
  H        49.0671322817       18.6078608940        5.2042306617
  H        13.2472201505       19.0165716033        7.9774375726
  H        29.9622311605       12.4415963789       12.2107217884
  H        28.9030059507       10.5052863658       13.3833673314
  H        25.2499127029       11.2014376495       11.2236891863
  H        26.3291896403       13.1246908297       10.0422290690
  H        27.2069116824       11.6510910429       14.7904305997
  H        30.9978047227       22.7680352365       12.0237238901
  H        32.0015356234       24.6492380835       13.3204120834
  H        35.6901601973       24.1503290576       11.1646957394
  H        34.6647197821       22.2786893290        9.8603222239
  H        33.6682366022       23.5791770436       14.7623323496
  H        25.7159109417        8.5889755236       11.4024087005
  H        30.8971319076       22.6819146801        3.9295589959
  H        31.9060406885       24.5542857756        2.6263551527
  H        35.5391602485       24.1631302414        4.8964567702
  H        34.5123476062       22.2977229039        6.2021433486
  H        33.6166824630       23.5694512594        1.2094561405
  H        40.5995025327       17.0913095909        4.6527520634
  H        32.5186830842       14.1422069121        8.2653990774
  H        29.9104414854       12.4743865300        3.9721993365
  H        28.8778978521       10.5843555132        2.7100967767
  H        25.1792035506       11.2115975112        4.8125796808
  H        26.2283706681       13.0977056570        6.0762805347
  H        27.1960150759       11.6674681637        1.2408121815
  H        33.2971159327       14.1829558503        6.4352086527
  H        33.4060847678       14.4101466594        9.6105902810
  H        32.2080978368       18.5610991836        5.2325708572
  H        30.2276352461       14.1863314284        8.0916733112
  H        16.1185542784        2.9630963355       12.1300301744
  H        14.9533033516        4.8201195952       13.3227598806
  H        17.3654940402        7.6858095428       11.2096858316
  H        18.5142820170        5.8182328272       10.0098608549
  H        16.7534883267        5.7395145861       14.7715198545
  H        44.8281744074       32.1400781928       11.9767956755
  H        45.9374309183       30.3411515388       13.3061971488
  H        43.6817031936       27.3780573731       11.1527792857
  H        42.5990800469       29.1898923836        9.8101899064
  H        44.2301978763       29.4365887151       14.7688711290
  H        14.8506394616        8.5458788639       11.3633169227
  H        44.9000702317       32.2339112080        3.9320876579
  H        46.0249126452       30.4128360166        2.6525564705
  H        43.7627207061       27.4839885091        4.8448233165
  H        42.6449798004       29.3176102666        6.1238644548
  H        44.2683577985       29.4703733288        1.2181430714
  H        35.0046380963       26.6335229132        4.6482801732
  H        36.6050792229       35.1339302965        8.1806564190
  H        16.1438817876        3.0128103935        3.9038074181
  H        14.9742694045        4.8561007378        2.6880137655
  H        17.3952044341        7.7472122948        4.7557917659
  H        18.5422791842        5.8932671538        5.9835264411
  H        16.7645989333        5.7554652638        1.2192819834
  H        36.2785811584       34.4822436474        6.2733724325
  H        36.3805695092       34.2091265058        9.4997272202
  H        40.5786341464       33.2012233604        5.1542601942
  H        17.4707400274        1.9467108488        7.9740977565
  H        28.8427019624       19.2063657200       12.3577120771
  H        28.7995534216       18.8304895181        3.7949505057
  H        30.6808251754       15.3921552954        3.9544547277
  H        31.2186830122       15.5746523045       12.5530948685
  H        28.0362115408       17.7048072801       14.7638854726
  H        29.5185218635       15.5793757934       14.9214532608
  H        32.1624981390       16.1966414220        1.8832439519
  H        32.0024926305       19.1895934129       16.6131330278
  H        18.8534283869        0.8689712228       12.3352041517
  H        40.5279632123       35.2290925069        3.9522253345
  H        42.3229786716       34.4179688356        3.5911133272
  H        22.0877428994        0.6921168921       12.3514426311
  H        11.5969245603       18.7127034792       12.3823180741
  H        52.2647778189       18.4310639225        3.6773946716
  H        49.2550489324       16.4772009024        3.5847197588
  H        10.1496315165       15.7983039165       12.2930608568
  H        50.8498921520       17.6923956860        3.9542928119
  H        10.0456572533       17.3945855465       12.0519828834
  H        20.2146728026        0.0021642467       12.0420407997
  H        39.1834722012       36.1242912150        3.6863606156
 Ni        30.7380395995       17.6408189734        3.0782896925
 Ni        31.3237199813       17.0737514485       -0.4099647230
 Ni        30.0617119656       18.9162657548       -0.8321089951
 Ni        29.8979476920       17.3464053890       13.1577192223
  O        10.6499143467       14.3651196569        5.4858178083
  O        12.6131626922       14.6575294504        6.5838973402
  O        49.1478676138       16.8460108792        7.9897952077
  O        50.3502270486       20.9359143811        5.6481642831
  O        48.3485335245       20.5932861483        6.6659612377
  O        11.0514485613       17.0539682268        6.5006193119
  O        50.3209632733       20.8816647472       10.4068299342
  O        48.3467377993       20.5867280226        9.3271039105
  O        49.5435480789       18.2484654829       10.0682584485
  O        12.3588716968       18.6245870231        7.9997418679