     569
 i =       22, E =     -4729.5042526554
  C        11.8586958574       14.0533806776        5.7415368828
  C        12.4561479428       12.8904654373        5.0232597934
  C        11.7045159958       12.1715646601        4.0815233648
  C        12.2809226248       11.1093635588        3.3892043472
  C        13.6214817582       10.7395188140        3.6170120114
  C        14.3545975072       11.4430790137        4.5905358155
  C        13.7816698633       12.5080347150        5.2820345997
  C        14.2610110756        9.6488494922        2.8436213721
  C        14.2562176283        9.6567442283        1.4219237738
  C        13.7430957932       10.7588912297        0.6680238609
  C        49.1266720434       21.2333413045        5.8797842249
  C        48.5498546631       22.4012312676        5.1527361175
  C        49.2998297084       23.0684135598        4.1715953327
  C        48.7329051282       24.1075287464        3.4383677785
  C        47.4024020273       24.5092750995        3.6670509318
  C        46.6715293943       23.8605801643        4.6807525107
  C        47.2339733693       22.8156970308        5.4101360407
  C        46.7721683975       25.5869497705        2.8697537448
  C        46.7612241412       25.5573422561        1.4479909606
  C        47.2612133205       24.4422873543        0.7044760478
  C        14.8600940302        8.5703822756        0.7086476364
  C        14.8918457919        8.5969209334        3.5202621415
  C        49.1131162896       21.2035322872       10.1453760255
  C        48.5278184520       22.3649854327       10.8723536157
  C        49.2669335710       23.0253951489       11.8655657593
  C        48.6906562525       24.0599837768       12.5970052140
  C        47.3603629439       24.4570484560       12.3585489306
  C        46.6401401576       23.8125334903       11.3346282515
  C        47.2136314446       22.7766000619       10.6028456951
  C        46.7218832527       25.5319518454       13.1496160110
  C        46.7335486781       25.5282279509       14.5713242336
  C        47.2489929018       24.4290204566       15.3277127454
  C        40.6132105400       17.0880840895       15.3100424308
  C        40.6142674816       17.1053904246       12.4988859590
  C        11.8828422445       14.0863896502       10.2855726822
  C        12.4720196478       12.9105397576       10.9897252756
  C        11.7145897349       12.1775349995       11.9160753647
  C        12.2811457562       11.0950411084       12.5844438239
  C        13.6198964049       10.7211193468       12.3524485116
  C        14.3577546189       11.4364657252       11.3913839546
  C        13.7923652745       12.5176698106       10.7187287654
  C        14.2534907627        9.6243587345       13.1228443537
  C        14.2522487975        9.6443544451       14.5446838808
  C        13.7424891816       10.7533456842       15.2917711862
  C        22.5115391275        3.2438957421        5.7519621831
  C        23.2261322718        4.3471284537        5.0494831025
  C        24.2202968945        4.0631362981        4.1014292080
  C        24.8492880120        5.0998836364        3.4170571946
  C        24.4998101909        6.4429753359        3.6604405385
  C        23.5331137851        6.7183701440        4.6448796425
  C        22.8995463689        5.6834567471        5.3278210973
  C        25.1091941136        7.5478827733        2.8854073813
  C        25.0848827553        7.5424023766        1.4636998600
  C        24.3851586831        6.5440696417        0.7141458447
  C        38.2976983028       31.9272869429        5.8517891949
  C        37.5554164499       30.8384841848        5.1508035577
  C        36.5895478956       31.1456557323        4.1797847751
  C        35.9579869490       30.1281340009        3.4694869833
  C        36.2765214828       28.7762963217        3.7061539183
  C        37.2116311335       28.4765816751        4.7150648882
  C        37.8471443321       29.4931332984        5.4249354032
  C        35.6654647590       27.6884902805        2.9065319571
  C        35.7060649375       27.7037927881        1.4846778901
  C        36.4198038615       28.7044586008        0.7524094805
  C        25.7088422753        8.6138039860        0.7468208507
  C        25.7072302490        8.6205725585        3.5586697476
  C        38.3305879196       31.9606933926       10.1606197870
  C        37.6143882763       30.8877507768       10.9106495909
  C        36.6812807018       31.1974756491       11.9123151404
  C        36.0714518572       30.1807643310       12.6453924324
  C        36.3794474572       28.8270690136       12.4015850784
  C        37.2937711572       28.5273052160       11.3727782738
  C        37.9052674071       29.5405209245       10.6405972197
  C        35.7636881582       27.7287460434       13.1831507989
  C        35.7558106101       27.7245964226       14.6058977893
  C        36.4419703306       28.7156258142       15.3757901399
  C        46.1354466819       26.6208055926       15.2814753712
  C        46.0879122528       26.5803194803       12.4735834598
  C        22.4641011550        3.2564570768       10.2569205109
  C        23.1651380241        4.3644806800       10.9757638716
  C        24.1718685929        4.0767884067       11.9114000093
  C        24.8061913210        5.1055798418       12.6040793574
  C        24.4544711312        6.4526665419       12.3848177034
  C        23.4712355389        6.7336321619       11.4170939757
  C        22.8325406483        5.7050972039       10.7244590648
  C        25.0876312395        7.5493152594       13.1608385737
  C        25.0748305155        7.5424984576       14.5839443484
  C        24.3784084673        6.5451153200       15.3371488421
  C        26.5590145458       17.8230903808        5.7872162112
  C        25.2605003969       17.8778515454        5.0579755894
  C        25.0119633647       18.8773444334        4.1047470095
  C        23.8035075309       18.9015021273        3.4130420081
  C        22.8120001631       17.9298814036        3.6547224510
  C        23.0563773987       16.9536819095        4.6384085809
  C        24.2662960045       16.9238951657        5.3277535904
  C        21.5458750025       17.9185457358        2.8844092646
  C        21.5544288337       17.9016816979        1.4628421549
  C        22.7641028811       17.7755787425        0.7094180158
  C        34.4380971350       17.1934384362        5.9282040566
  C        35.7339001083       17.1477055457        5.1859262252
  C        35.9467372635       16.1663506680        4.2048336443
  C        37.1260347847       16.1521774946        3.4653563190
  C        38.1270653347       17.1180048380        3.6863450597
  C        37.9181849518       18.0802307489        4.6927637970
  C        36.7350635650       18.0999737870        5.4293404721
  C        39.3788410963       17.1235465130        2.8936645913
  C        39.3676333717       17.1205637997        1.4715034750
  C        38.1557533224       17.2280323033        0.7196555642
  C        20.3115608573       17.9261781596        0.7496293527
  C        20.3198813671       17.9194924971        3.5621371865
  C        34.3835241495       17.2159743886       10.2590663504
  C        35.6917965904       17.1197713070       10.9679208262
  C        35.9275934566       16.1277596340       11.9326432607
  C        37.1304079529       16.1009620882       12.6343038202
  C        38.1292084238       17.0647979614       12.3919663787
  C        37.9016989677       18.0276633963       11.3908339849
  C        36.6989986668       18.0587736499       10.6911321298
  C        39.3870148858       17.0860520742       13.1726076010
  C        39.3715843105       17.1014685149       14.5941803404
  C        38.1577315076       17.2171639833       15.3428707305
  C        35.1152057030       26.6476646113       15.3052550025
  C        35.1807332358       26.6564426163       12.4953739950
  C        26.5690368493       17.8272389666       10.3265775540
  C        25.2551014703       17.8770642264       11.0301130704
  C        24.9946711754       18.8796963288       11.9764180428
  C        23.7767060492       18.9063998613       12.6494702800
  C        22.7910342309       17.9312950221       12.3976726586
  C        23.0458553583       16.9544097552       11.4184742455
  C        24.2646761447       16.9248275152       10.7446270773
  C        21.5256810738       17.9139586868       13.1658367184
  C        21.5436175733       17.8981068033       14.5868288002
  C        22.7583592089       17.7737848932       15.3331211489
  C        14.0458216611       17.8316048686       10.2843401862
  C        15.3524025243       17.8949979029       11.0015212430
  C        15.6113328217       18.9054501463       11.9403466138
  C        16.8221094377       18.9300656040       12.6288758695
  C        17.8053874267       17.9469383394       12.3994266279
  C        17.5524115285       16.9622951881       11.4262688359
  C        16.3411815144       16.9331965512       10.7392113918
  C        19.0712997204       17.9279734537       13.1705114643
  C        19.0624231185       17.9193127261       14.5921785758
  C        17.8509576357       17.8208183348       15.3463935892
  C        46.7996615021       17.2163134330       10.1564759732
  C        45.5026212452       17.1462014921       10.8941832671
  C        45.2920136390       16.1612532760       11.8719614948
  C        44.1057904574       16.1344366126       12.6015893926
  C        43.0970986023       17.0923750117       12.3776660617
  C        43.3038445513       18.0555850256       11.3712935482
  C        44.4911524453       18.0862073456       10.6423210922
  C        41.8435631644       17.0979678305       13.1700538072
  C        41.8559468813       17.1019217945       14.5930318018
  C        43.0684213188       17.2027040945       15.3457808700
  C        20.3055702688       17.9237219182       15.3056049951
  C        20.2973482219       17.9082502723       12.4932229338
  C        46.7862115562       17.2336287195        5.8853392629
  C        45.4860847262       17.1329899198        5.1622966439
  C        45.2679400533       16.1350634556        4.2002696427
  C        44.0813447848       16.1098299184        3.4712847383
  C        43.0831088168       17.0799332876        3.6865900287
  C        43.2931419002       18.0500371860        4.6845100218
  C        44.4805192995       18.0811823089        5.4090155466
  C        41.8338675334       17.0982106792        2.8936941623
  C        41.8513796541       17.1007634334        1.4722783394
  C        43.0661614475       17.1991404452        0.7229689849
  C        46.1531757130       26.6371977818        0.7262351233
  C        46.1622159067       26.6560804385        3.5358753979
  C        14.0399251850       17.8283172176        5.7066220280
  C        15.3538964543       17.8963805380        5.0070273839
  C        15.6230160086       18.9139938102        4.0800185607
  C        16.8469246331       18.9484576112        3.4169899603
  C        17.8261036005       17.9642850942        3.6570916670
  C        17.5630618295       16.9736471886        4.6201396357
  C        16.3413380495       16.9387327843        5.2867572469
  C        19.0918617263       17.9414004693        2.8895118391
  C        19.0732803547       17.9252277913        1.4685674945
  C        17.8563110083       17.8232671168        0.7226922377
  C        28.7952605700       14.1209719070       10.4078625428
  C        28.2017820738       12.9425757484       11.0982435207
  C        28.9254111210       12.2119216421       12.0525073023
  C        28.3344918659       11.1266758166       12.6955097323
  C        27.0062369299       10.7488348324       12.4104492640
  C        26.3058322094       11.4608027229       11.4198138998
  C        26.8936895667       12.5446334564       10.7745463867
  C        26.3396473619        9.6631309026       13.1656905549
  C        26.3186781749        9.6899834804       14.5867080675
  C        26.8106521565       10.8061560773       15.3349981732
  C        32.1801504952       21.2398642771       10.1426864604
  C        32.7758364114       22.4067224186       10.8585045239
  C        32.0245207178       23.0894304687       11.8283706676
  C        32.5932685869       24.1278995379       12.5591585113
  C        33.9305939398       24.5140154186       12.3432861660
  C        34.6640816288       23.8519498242       11.3400988214
  C        34.0974649462       22.8078934021       10.6103462053
  C        34.5555500000       25.5887205411       13.1494897514
  C        34.5296864745       25.5636414898       14.5717858818
  C        34.0100546733       24.4516116490       15.3069504365
  C        25.7082835325        8.6100704022       15.3019251579
  C        25.7070001087        8.6117643825       12.4883502098
  C        32.0698685784       21.1957445545        5.8743990984
  C        32.6401433177       22.3592798660        5.1321403282
  C        31.9077753456       23.0029255947        4.1226647924
  C        32.4789413259       24.0455660425        3.3945434203
  C        33.7966068496       24.4734268152        3.6535712993
  C        34.5096712690       23.8423056111        4.6914529278
  C        33.9437334109       22.7973257522        5.4163405680
  C        34.4381769650       25.5588633564        2.8734414987
  C        34.4689686071       25.5490987020        1.4507690725
  C        33.9800069909       24.4450340200        0.6836694601
  C        40.6102541227       17.0925836783        0.7553957301
  C        40.6063473425       17.1285661739        3.5657029088
  C        28.7405949225       14.0624984690        5.8142668114
  C        28.1330325646       12.9159805044        5.0781470539
  C        28.8634680764       12.2358012324        4.0918602538
  C        28.2851147102       11.1771599824        3.3961622397
  C        26.9601259563       10.7744308326        3.6590173825
  C        26.2471730909       11.4433476095        4.6717076703
  C        26.8241472400       12.5014706633        5.3707559086
  C        26.3189056310        9.6854221941        2.8844550204
  C        26.3081027706        9.7020457839        1.4625063610
  C        26.8033561587       10.8134595042        0.7108535477
  C        18.1354537988        3.1809312876       10.3171299192
  C        17.4060452739        4.2781568311       11.0157015440
  C        16.3901979929        3.9997276418       11.9430572708
  C        15.7423928020        5.0396589549       12.6065597258
  C        16.0943719382        6.3833894719       12.3670489961
  C        17.0838802038        6.6529928695       11.4034395863
  C        17.7330534891        5.6156953272       10.7383806242
  C        15.4699651554        7.4910416618       13.1301196536
  C        15.4852227328        7.4903407337       14.5518398291
  C        16.1867703897        6.4967090135       15.3049974830
  C        42.9457148153       31.8595548467       10.0727959921
  C        43.6461093487       30.7718426034       10.8167709638
  C        44.5915912363       31.0932073560       11.8028615637
  C        45.1973032497       30.0876988406       12.5505779294
  C        44.8709687042       28.7346306077       12.3356716203
  C        43.9451773875       28.4202407064       11.3224452028
  C        43.3363630829       29.4253538689       10.5743570656
  C        45.4885621712       27.6553455335       13.1388747151
  C        45.4926974703       27.6809222617       14.5605714286
  C        44.8055789507       28.6889457445       15.3071977293
  C        14.8562707066        8.5628388408       15.2642144682
  C        14.8746997314        8.5628235477       12.4515422612
  C        42.9463708154       31.9616426279        5.8089738265
  C        43.6915607100       30.8854523578        5.0954450787
  C        44.6563937954       31.1913423812        4.1233887175
  C        45.2779046586       30.1717477419        3.4056479211
  C        44.9538473545       28.8214670760        3.6430561940
  C        44.0200667856       28.5238051318        4.6535483325
  C        43.3918159390       29.5405833600        5.3657269219
  C        45.5628881804       27.7240472172        2.8578179931
  C        45.5331947673       27.7173473133        1.4365244608
  C        44.8268528863       28.7075740881        0.6835903943
  C        35.0868688080       26.6388538916        0.7510081525
  C        35.0485560982       26.6160916987        3.5614144925
  C        18.1486945840        3.2468812097        5.7066618807
  C        17.4301156935        4.3437227724        4.9973039158
  C        16.4146275520        4.0524499668        4.0740406743
  C        15.7662945957        5.0830727326        3.3986457766
  C        16.1212093883        6.4282859039        3.6210848028
  C        17.1129349863        6.7116819876        4.5779717274
  C        17.7606313640        5.6827772888        5.2577419583
  C        15.4906143579        7.5239645494        2.8486603477
  C        15.4963661994        7.5073007426        1.4275224393
  C        16.1930430958        6.5055479631        0.6808137290
  H        10.6724010305       12.4656912589        3.9044377003
  H        11.6946796629       10.5508717731        2.6626380964
  H        15.3916268244       11.1684935790        4.7723068240
  H        14.3511237383       13.0711990643        6.0175224951
  H        13.3762381372       11.6310838250        1.2013261342
  H        50.3225170405       22.7483353447        3.9868130410
  H        49.3193772733       24.6227155875        2.6807253345
  H        45.6421098813       24.1615291701        4.8640464507
  H        46.6630436100       22.2906509793        6.1724251390
  H        47.6298108080       23.5759208551        1.2461363221
  H        14.8723307798        8.5882082855        4.6085720129
  H        50.2868727554       22.7023263193       12.0606697693
  H        49.2689922556       24.5752208143       13.3606981811
  H        45.6108933619       24.1101356312       11.1452770245
  H        46.6529357586       22.2547704895        9.8309663208
  H        47.6078802043       23.5519377471       14.7968329817
  H        40.6136683668       17.0724153114       11.4109367619
  H        48.6870661893       14.0950976272        7.7999803274
  H        10.6811767782       12.4667149829       12.0936236630
  H        11.6894193022       10.5247563782       13.2972813346
  H        15.3931359010       11.1584773742       11.2053178291
  H        14.3647029242       13.0868900689        9.9900828514
  H        13.3757759237       11.6220182130       14.7531546907
  H        47.9300979559       14.2185362937        9.7110992962
  H        47.7799461574       14.3736467131        6.4953871395
  H        49.0823128097       18.5518944547       10.8671139120
  H        10.4160169641       14.1343285970        7.9990319697
  H        24.4780724419        3.0235760075        3.9117038175
  H        25.6210247842        4.8792676224        2.6827798672
  H        23.2558236921        7.7524231717        4.8389379429
  H        22.1314018831        5.8869670282        6.0699207533
  H        23.8221861223        5.7866696998        1.2518420672
  H        36.3584200686       32.1898948318        3.9830622063
  H        35.2101493888       30.3721492530        2.7181056361
  H        37.4661232070       27.4362356437        4.9070266249
  H        38.5944416342       29.2671703313        6.1820180963
  H        36.9813313274       29.4537897385        1.3026652164
  H        25.7423128988        8.6003346757        4.6464171134
  H        36.4529791725       32.2417932278       12.1131953048
  H        35.3411746237       30.4285174627       13.4125890253
  H        37.5459624541       27.4871041514       11.1774205495
  H        38.6314941449       29.3120578023        9.8642786867
  H        37.0212705470       29.4731854309       14.8557239227
  H        46.1094106802       26.5878301182       11.3855495114
  H        44.6682736767       35.1161292502        7.8139561677
  H        24.4478908573        3.0379796112       12.0779346483
  H        25.5894536408        4.8742140669       13.3228280928
  H        23.1871511663        7.7686521857       11.2380112106
  H        22.0577504357        5.9205903991        9.9922390190
  H        23.8099735278        5.7890340329       14.8033818514
  H        44.9537087102       34.3903465556        9.6951898790
  H        44.9017155835       34.2067895779        6.4906375660
  H        40.6660718157       33.2091548897       10.8531746071
  H        23.1506720123        1.9577633245        8.0048555028
  H        25.7746508729       19.6306016658        3.9211078769
  H        23.6121453240       19.6809222260        2.6786819150
  H        22.2998967185       16.1955756142        4.8304193751
  H        24.4704956890       16.1570440846        6.0711494907
  H        23.7018239690       17.6483394646        1.2428055781
  H        35.1698707187       15.4261371407        4.0290183406
  H        37.2871425888       15.3836243904        2.7124906822
  H        38.6818922324       18.8352450072        4.8679581533
  H        36.5579234718       18.8589136342        6.1879733121
  H        37.2184359507       17.3508319379        1.2548501518
  H        20.3221811306       17.9556483937        4.6500653806
  H        35.1577348318       15.3847574049       12.1277025531
  H        37.3091612296       15.3285708416       13.3791648326
  H        38.6655035148       18.7776885584       11.1960571266
  H        36.5060079116       18.8192072843        9.9382719051
  H        37.2210030458       17.3319851563       14.8053974448
  H        35.1661061526       26.6805486106       11.4073600848
  H        28.4971434319       21.0762204706        7.8845312908
  H        25.7591243687       19.6303416624       12.1642635836
  H        23.5728352187       19.6871896076       13.3790337522
  H        22.2918464134       16.1956621142       11.2192855693
  H        24.4784642017       16.1591206490       10.0028193784
  H        23.6916798711       17.6453330331       14.7931015651
  H        29.0205939756       21.7166037726        9.7274105733
  H        29.2026226777       21.6933365816        6.5578486230
  H        32.0789776323       18.6534338024       10.9560101507
  H        27.3667318372       19.0168573351        8.0742227597
  H        14.8529127664       19.6651445159       12.1155536254
  H        17.0210253395       19.7176460831       13.3525111551
  H        18.3032246771       16.1967593651       11.2415404393
  H        16.1314173000       16.1599975815       10.0040154553
  H        16.9108846225       17.7108645730       14.8137558290
  H        46.0757298661       15.4298257880       12.0550255224
  H        43.9469864876       15.3631018385       13.3520870332
  H        42.5352056881       18.8043930003       11.1912067060
  H        44.6645331008       18.8458013284        9.8834990575
  H        44.0074672645       17.3148256585       14.8114294122
  H        20.2959716699       17.9420441168       11.4052128855
  H        46.0432820208       15.3923559374        4.0264977066
  H        43.9145540605       15.3336578268        2.7275496620
  H        42.5282271182       18.8043572280        4.8568070017
  H        44.6629222998       18.8482164704        6.1576596892
  H        44.0038063860       17.3076141291        1.2605403763
  H        46.1990534633       26.6826693947        4.6233198598
  H        52.7413184525       21.0627125852        8.1946405844
  H        14.8637602883       19.6711766052        3.8975060815
  H        17.0583585532       19.7404803230        2.7018453738
  H        18.3126714532       16.2082877546        4.8101973822
  H        16.1204255342       16.1630642296        6.0158861066
  H        16.9202400985       17.7151189489        1.2623897402
  H        52.3228395739       21.6737702798        6.2945369287
  H        52.0139014420       21.7028250750        9.4955648358
  H        49.0681413506       18.6083675381        5.2041729105
  H        13.2473542684       19.0162383084        7.9761091527
  H        29.9482098223       12.5056710749       12.2775438078
  H        28.8974137287       10.5598334982       13.4338596813
  H        25.2795338782       11.1802874238       11.1920766557
  H        26.3488953871       13.1142708347       10.0258707126
  H        27.1685592837       11.6793156612       14.7980875965
  H        30.9969817972       22.7815703223       12.0051456818
  H        32.0038508368       24.6541868859       13.3067574631
  H        35.6985648414       24.1404511198       11.1651161152
  H        34.6713023624       22.2739384583        9.8563545090
  H        33.6591966443       23.5814609038       14.7595492679
  H        25.7412708266        8.5932482057       11.4004139805
  H        30.8961767128       22.6634164248        3.9108663938
  H        31.9023483619       24.5439383106        2.6182910621
  H        35.5297420274       24.1587052369        4.8992214259
  H        34.5028685894       22.2900541235        6.1988580041
  H        33.6061787538       23.5695719144        1.2070478160
  H        40.6057670773       17.1017668995        4.6537086261
  H        32.5138598913       14.1466170362        8.2109805494
  H        29.8834165848       12.5522095839        3.8857790672
  H        28.8595086888       10.6459633562        2.6403832691
  H        25.2215946778       11.1461235535        4.8808576658
  H        26.2697311898       13.0343609000        6.1395357675
  H        27.1542346366       11.6921284599        1.2443003296
  H        33.3088312706       14.2423089163        6.4672215196
  H        33.4048332465       14.3462503846        9.6134100539
  H        32.0468091904       18.4396149213        5.1440122798
  H        30.1941107812       14.1384495117        8.0979601694
  H        16.1181040088        2.9632096019       12.1293330954
  H        14.9528474852        4.8202141844       13.3220959560
  H        17.3664051105        7.6858749329       11.2104948544
  H        18.5152110836        5.8184079268       10.0106764636
  H        16.7533003209        5.7393603899       14.7714799305
  H        44.8277998012       32.1403065923       11.9770478004
  H        45.9371562395       30.3414966774       13.3065212638
  H        43.6825831737       27.3781519436       11.1522957287
  H        42.5998267598       29.1900150750        9.8096119694
  H        44.2302515939       29.4367285481       14.7688847636
  H        14.8509891532        8.5460703247       11.3633207185
  H        44.9001487815       32.2340128808        3.9321455660
  H        46.0250023643       30.4129608320        2.6525941581
  H        43.7628441111       27.4840965406        4.8448730505
  H        42.6450619823       29.3178362501        6.1239382678
  H        44.2683899991       29.4704796474        1.2181988690
  H        34.9989291125       26.6284021697        4.6486300533
  H        36.6052988766       35.1340501007        8.1806400803
  H        16.1433382810        3.0128867270        3.9045574211
  H        14.9737507399        4.8562267797        2.6888037241
  H        17.3967402421        7.7471214161        4.7545493129
  H        18.5438030624        5.8932406479        5.9821809769
  H        16.7644896028        5.7553143631        1.2192508423
  H        36.2790784855       34.4820384933        6.2733341207
  H        36.3810287905       34.2089993002        9.4994983540
  H        40.5787267668       33.2018933795        5.1538987355
  H        17.4713117292        1.9474244710        7.9740863562
  H        29.3722378101       19.6957434712       12.5649609919
  H        28.6862362729       18.7897151337        3.8081878017
  H        31.7746351768       15.7923832277        3.5383415628
  H        30.9457544868       15.6496298765       12.8658400845
  H        28.0485422487       18.2775943500       14.6292761788
  H        29.0741589306       15.6156900989       14.5309415320
  H        32.3254814773       17.2274132282        1.4048974038
  H        18.8537828123        0.8691223295       12.3352511145
  H        40.5281365955       35.2290933043        3.9521031414
  H        42.3235994653       34.4185986942        3.5906749019
  H        22.0877692387        0.6921427085       12.3514187040
  H        11.5967316682       18.7126747544       12.3827127478
  H        52.2648600725       18.4314605593        3.6775401406
  H        49.2551527695       16.4764232224        3.5842830464
  H        10.1503321222       15.7982368101       12.2924090156
  H        50.8501114998       17.6926829596        3.9540425051
  H        10.0460772194       17.3947781079       12.0518951982
  H        20.2151869060        0.0023611320       12.0419291760
  H        39.1836144358       36.1243640246        3.6863120773
 Ni        30.4774138508       17.5947277321        2.8302192629
 Ni        30.7772321103       16.2037400732        0.0788017173
 Ni        29.5451990209       18.1455151324        0.5016399266
 Ni        29.9692333021       17.5937108094       13.4080355814
  O        10.6498735992       14.3651389168        5.4858204647
  O        12.6130510461       14.6573932697        6.5838932340
  O        49.1476515214       16.8459104042        7.9898596566
  O        50.3501286933       20.9361280169        5.6482135665
  O        48.3484997057       20.5932407183        6.6660073990
  O        11.0510664749       17.0540184784        6.5007144846
  O        50.3208459187       20.8817036793       10.4069085477
  O        48.3466527682       20.5867227125        9.3271577925
  O        49.5433243156       18.2483757592       10.0684088933
  O        12.3588269954       18.6247243128        7.9997827431
  O        48.6931815648       14.1486114951        6.7513071181