     566
 i =      159, E =     -4712.2706541947
  C        11.8588396612       14.0535450651        5.7415596420
  C        12.4563034274       12.8905374594        5.0234548303
  C        11.7045815849       12.1716616528        4.0817479749
  C        12.2809255771       11.1094544366        3.3893881545
  C        13.6214893154       10.7395732296        3.6171268335
  C        14.3546357079       11.4430538281        4.5906889572
  C        13.7818080439       12.5080530896        5.2822247306
  C        14.2610274427        9.6489485542        2.8436613457
  C        14.2562802357        9.6568739715        1.4219535604
  C        13.7430259799       10.7589564562        0.6680475851
  C        49.1269087962       21.2330209286        5.8795789118
  C        48.5502540764       22.4010501628        5.1525660774
  C        49.3002576429       23.0683060354        4.1714981672
  C        48.7333558226       24.1074998664        3.4383437947
  C        47.4028673644       24.5092828030        3.6670633006
  C        46.6719535055       23.8604580896        4.6806398220
  C        47.2343596410       22.8154963030        5.4099461022
  C        46.7726050192       25.5870013492        2.8698107406
  C        46.7614883443       25.5573637707        1.4480450562
  C        47.2613104748       24.4422361549        0.7045269837
  C        14.8603484202        8.5706242965        0.7086571189
  C        14.8919364655        8.5970439346        3.5202759275
  C        49.1131410656       21.2033815470       10.1453219534
  C        48.5277429793       22.3647117176       10.8725099557
  C        49.2669367577       23.0254626113       11.8654326087
  C        48.6905820611       24.0600189204       12.5968758428
  C        47.3601538420       24.4567731996       12.3586588365
  C        46.6397686365       23.8118024774       11.3351513265
  C        47.2133388395       22.7758919069       10.6033802912
  C        46.7216923140       25.5317462425       13.1496922422
  C        46.7334832166       25.5281204535       14.5714005766
  C        47.2489358052       24.4289028882       15.3277658544
  C        40.6261749459       17.1070416508       15.3271402054
  C        40.6494305090       17.1458134317       12.5177792608
  C        11.8830689878       14.0865727838       10.2853290768
  C        12.4724408282       12.9107924836       10.9895180658
  C        11.7150500979       12.1778139629       11.9159226046
  C        12.2816488442       11.0954005078       12.5843874830
  C        13.6203748252       10.7214258924       12.3523493819
  C        14.3581746186       11.4366898031       11.3911654190
  C        13.7927212384       12.5177972974       10.7183911813
  C        14.2539880870        9.6247193438       13.1228185948
  C        14.2525817869        9.6446317001       14.5446719621
  C        13.7425605387       10.7534873567       15.2917894083
  C        22.5123266020        3.2450934402        5.7540970532
  C        23.2265654936        4.3522556800        5.0576617619
  C        24.2257339177        4.0765983060        4.1124736735
  C        24.8506044116        5.1192058822        3.4330097809
  C        24.4918175570        6.4596484220        3.6782486612
  C        23.5215582592        6.7267910933        4.6612030644
  C        22.8923018807        5.6861892137        5.3392618647
  C        25.0914105185        7.5694304615        2.9025576444
  C        25.0605771511        7.5622544025        1.4811241495
  C        24.3620777764        6.5591927569        0.7366828007
  C        38.2942430250       31.9246363075        5.8533793070
  C        37.5444897949       30.8336138022        5.1587645497
  C        36.5728489059       31.1383159040        4.1923220182
  C        35.9355111717       30.1197356914        3.4873809353
  C        36.2523110366       28.7669645536        3.7232839250
  C        37.1917838635       28.4696734773        4.7292157961
  C        37.8331715583       29.4874599277        5.4337494702
  C        35.6414923838       27.6784599265        2.9202708753
  C        35.6926086619       27.6947220084        1.4977212278
  C        36.4084006906       28.6977388632        0.7700845442
  C        25.6757068283        8.6357788502        0.7600275058
  C        25.6841418072        8.6473161255        3.5722499868
  C        38.3321748404       31.9602535328       10.1628792132
  C        37.6201580346       30.8871034144       10.9180089101
  C        36.6872200988       31.1969219058       11.9198706350
  C        36.0795243661       30.1806986308       12.6558790371
  C        36.3892782915       28.8268815674       12.4149583024
  C        37.3053085883       28.5269700961       11.3875382544
  C        37.9146014633       29.5396908707       10.6525411204
  C        35.7714871288       27.7274913461       13.1944978099
  C        35.7583675316       27.7204090634       14.6175097911
  C        36.4380255158       28.7113207007       15.3933732173
  C        46.1355376325       26.6207868340       15.2815502875
  C        46.0876928055       26.5800934955       12.4736507156
  C        22.4600848856        3.2566338801       10.2594310524
  C        23.1507438889        4.3659274964       10.9849884963
  C        24.1481384435        4.0815671986       11.9314914347
  C        24.7723934471        5.1126777451       12.6297240088
  C        24.4201219315        6.4586309396       12.4042654867
  C        23.4458569162        6.7360266446       11.4263529140
  C        22.8166765293        5.7052962295       10.7289252853
  C        25.0474172328        7.5591176420       13.1787323008
  C        25.0381375983        7.5563763474       14.6018166141
  C        24.3488353311        6.5578652105       15.3598296197
  C        26.6794473600       17.8759957494        5.7299789329
  C        25.3796131648       17.9628623943        4.9984739189
  C        25.1396288045       18.9423337838        4.0220884772
  C        23.9115649589       18.9910236748        3.3613825764
  C        22.8893812933       18.0617787632        3.6487249189
  C        23.1296381865       17.1059057243        4.6540934624
  C        24.3540662585       17.0546138518        5.3153448270
  C        21.6065660465       18.0506420301        2.8986439586
  C        21.5964190107       18.0017286094        1.4765155642
  C        22.7963789203       17.8552479634        0.7109293311
  C        34.4173585214       17.2179337148        5.9111794578
  C        35.7091345763       17.1523254466        5.1710921132
  C        35.9008812627       16.1940039495        4.1630582866
  C        37.0848268834       16.1703681095        3.4310864487
  C        38.1094579294       17.1034333417        3.6853567969
  C        37.9202082406       18.0397870667        4.7202603761
  C        36.7345965316       18.0690135353        5.4503560312
  C        39.3653426165       17.1064452483        2.9006096822
  C        39.3638521164       17.1235184045        1.4783426002
  C        38.1593899647       17.2530786216        0.7176909517
  C        20.3449400037       18.0071319024        0.7760838553
  C        20.3841905241       18.0559241304        3.5888040259
  C        34.4681513777       17.2386168748       10.1869681870
  C        35.7684175736       17.1627560970       10.9110421936
  C        35.9783308424       16.1806236759       11.8907808513
  C        37.1653956575       16.1577857019       12.6171184689
  C        38.1707001039       17.1162115065       12.3837210658
  C        37.9667488082       18.0733152273       11.3722243406
  C        36.7778137795       18.1014947975       10.6485847280
  C        39.4171417268       17.1313330114       13.1802514345
  C        39.3907041231       17.1370958142       14.6014756108
  C        38.1719597462       17.2574966048       15.3408666336
  C        35.1177161782       26.6404467669       15.3120863806
  C        35.1898587757       26.6568933462       12.5019818027
  C        26.5675448760       17.8282170350       10.3266666206
  C        25.2520907922       17.8800285801       11.0292312456
  C        24.9834822005       18.8957228857       11.9598042733
  C        23.7653616098       18.9249473506       12.6331385258
  C        22.7852562290       17.9389001307       12.4004650863
  C        23.0477781612       16.9487190037       11.4362349132
  C        24.2666368029       16.9170527339       10.7608996319
  C        21.5233405118       17.9256155573       13.1776804933
  C        21.5540687593       17.9364276597       14.5991177927
  C        22.7759300708       17.8251067237       15.3352885721
  C        14.0454098882       17.8271520079       10.2922073530
  C        15.3461368367       17.8823356089       11.0253395940
  C        15.6017630460       18.8925193565       11.9659968234
  C        16.8086492703       18.9175322787       12.6624938819
  C        17.7948195504       17.9347890320       12.4415699319
  C        17.5421280319       16.9455558891       11.4721448199
  C        16.3349433095       16.9166633425       10.7763114888
  C        19.0668205078       17.9294881657       13.2068045177
  C        19.0731152575       17.9499417728       14.6295214397
  C        17.8707635889       17.8624055333       15.3993621358
  C        46.8050722064       17.2191544185       10.1604616094
  C        45.5167149738       17.1576812754       10.9096227837
  C        45.3133231014       16.1794734158       11.8954376682
  C        44.1333159638       16.1598683913       12.6344467227
  C        43.1261001474       17.1188152275       12.4103288650
  C        43.3273597719       18.0774998470       11.3986173944
  C        44.5079342231       18.1008278984       10.6603222707
  C        41.8723651746       17.1268557100       13.1987804716
  C        41.8746703723       17.1195450708       14.6209677776
  C        43.0818708646       17.2081326422       15.3829602317
  C        20.3235727214       17.9741046894       15.3309563650
  C        20.2876822412       17.9020967246       12.5180649743
  C        46.7829053682       17.2291766444        5.8910926808
  C        45.4766318028       17.1172261618        5.1811730836
  C        45.2571920593       16.1150264946        4.2237898198
  C        44.0671547381       16.0829789573        3.5007696365
  C        43.0662428677       17.0499283526        3.7179034401
  C        43.2752340440       18.0204455557        4.7156413417
  C        44.4665002129       18.0589792024        5.4336434044
  C        41.8204611975       17.0715154545        2.9191227637
  C        41.8481543458       17.0897105108        1.4979995998
  C        43.0692772444       17.1913802691        0.7596221988
  C        46.1534293763       26.6372393940        0.7263177854
  C        46.1627281693       26.6561572641        3.5359649473
  C        14.0526517799       17.8401312072        5.7125047495
  C        15.3814576697       17.9375436051        5.0331019171
  C        15.6484262465       18.9654307597        4.1154143632
  C        16.8804382357       19.0264961519        3.4662815975
  C        17.8778043313       18.0593828947        3.7063258225
  C        17.6182461580       17.0615512189        4.6642401407
  C        16.3879660707       17.0002253318        5.3177646894
  C        19.1455858065       18.0514495344        2.9312077666
  C        19.1138542840       18.0120894717        1.5089282858
  C        17.8906533254       17.8902522861        0.7754823638
  C        28.8056244956       14.0884739412       10.3939752057
  C        28.1893300607       12.9182575190       11.0808453915
  C        28.9004369464       12.1935048108       12.0488578189
  C        28.2967883019       11.1220459674       12.7016396542
  C        26.9676794478       10.7517864040       12.4117935532
  C        26.2794127305       11.4566572672       11.4078715798
  C        26.8805897467       12.5283360810       10.7531068429
  C        26.2939998189        9.6758014484       13.1737665288
  C        26.2742679772        9.7082348036       14.5949164074
  C        26.7650941493       10.8278983373       15.3389353472
  C        32.1803638437       21.2376760177       10.1462577640
  C        32.7768463901       22.4051354958       10.8633440191
  C        32.0277511097       23.0911146466       11.8322477375
  C        32.5994379594       24.1298431462       12.5610821846
  C        33.9374619408       24.5131226035       12.3440681652
  C        34.6693069919       23.8469426912       11.3426319136
  C        34.0997710700       22.8024207820       10.6155546834
  C        34.5646048198       25.5863758609       13.1514046016
  C        34.5391552723       25.5563709080       14.5734493515
  C        34.0271949941       24.4374395388       15.3029540935
  C        25.6695256124        8.6285857109       15.3150003921
  C        25.6627453063        8.6208122667       12.5015590057
  C        32.0343166792       21.1311346230        5.7947517625
  C        32.5941902385       22.3063969736        5.0663911206
  C        31.8809808202       22.9499120232        4.0425009557
  C        32.4558753062       24.0103666241        3.3427270434
  C        33.7603842836       24.4567648721        3.6399297625
  C        34.4503280714       23.8286946876        4.6955900951
  C        33.8801287978       22.7692855742        5.3950773697
  C        34.4127569871       25.5472686439        2.8742770280
  C        34.4612822800       25.5363987682        1.4515805640
  C        33.9901667057       24.4279655419        0.6792552306
  C        40.6121929109       17.0957471331        0.7720257548
  C        40.5882982045       17.0969825831        3.5818398547
  C        28.7171021809       14.0951022733        5.8166152211
  C        28.1016027543       12.9499275567        5.0859427226
  C        28.8287811946       12.2723417470        4.0946197450
  C        28.2494057604       11.2146218749        3.3989044653
  C        26.9264915681       10.8077962825        3.6665535952
  C        26.2171566674       11.4738199954        4.6841679192
  C        26.7946502822       12.5324553437        5.3830519277
  C        26.2870937451        9.7151478199        2.8943427908
  C        26.2726251552        9.7282665320        1.4718935667
  C        26.7618025663       10.8391230449        0.7150993077
  C        18.1354629557        3.1809363195       10.3171844407
  C        17.4063330326        4.2782142878       11.0159195958
  C        16.3902905752        3.9999862942       11.9431226158
  C        15.7426451672        5.0400514390       12.6065709635
  C        16.0949510982        6.3837182119       12.3671529221
  C        17.0847607452        6.6531092761       11.4038004710
  C        17.7337927345        5.6156898126       10.7387950422
  C        15.4705724705        7.4914555776       13.1301407800
  C        15.4857513647        7.4907321619       14.5518554507
  C        16.1873571783        6.4971440353       15.3050114428
  C        42.9457116855       31.8595784174       10.0728110683
  C        43.6460609337       30.7718293762       10.8167663162
  C        44.5914590270       31.0931640433       11.8029616027
  C        45.1971729866       30.0876278717       12.5506492826
  C        44.8708758175       28.7345396909       12.3357353995
  C        43.9452102940       28.4201853797       11.3223659424
  C        43.3364122863       29.4253190265       10.5742826497
  C        45.4884958274       27.6552365880       13.1389248812
  C        45.4927794544       27.6808941930       14.5606309507
  C        44.8058121307       28.6889795991       15.3073153676
  C        14.8566372753        8.5631412278       15.2642188764
  C        14.8753282561        8.5632317010       12.4515403751
  C        42.9465191877       31.9617054126        5.8089804598
  C        43.6918533461       30.8855306479        5.0956145121
  C        44.6564313619       31.1914644321        4.1232996944
  C        45.2780220580       30.1718952207        3.4055920851
  C        44.9543420989       28.8215557240        3.6432486956
  C        44.0209221083       28.5238659461        4.6540861405
  C        43.3925899643       29.5406134795        5.3662483989
  C        45.5633564048       27.7241485056        2.8579544994
  C        45.5335482485       27.7174278361        1.4366473720
  C        44.8272089665       28.7076595583        0.6837100009
  C        35.0810624519       26.6291444960        0.7579716792
  C        35.0168042943       26.6054582216        3.5687182060
  C        18.1486669987        3.2469658513        5.7066057367
  C        17.4301934728        4.3438116628        4.9972134979
  C        16.4147472522        4.0526086534        4.0738827271
  C        15.7664772660        5.0832786299        3.3985140109
  C        16.1214226763        6.4284711125        3.6210414892
  C        17.1131591285        6.7117975172        4.5779346446
  C        17.7607936386        5.6828408475        5.2576840367
  C        15.4908300230        7.5241754119        2.8486535747
  C        15.4966797851        7.5075720043        1.4275201844
  C        16.1935534841        6.5059464486        0.6808246691
  H        10.6724660786       12.4658142969        3.9046903646
  H        11.6946124727       10.5510164055        2.6628350269
  H        15.3916634405       11.1684379486        4.7724249203
  H        14.3513546034       13.0712657420        6.0176048573
  H        13.3758970447       11.6310306276        1.2013588824
  H        50.3229195896       22.7481828041        3.9866521482
  H        49.3198229215       24.6227143580        2.6807175842
  H        45.6424963415       24.1612981771        4.8638925151
  H        46.6633326017       22.2902894353        6.1720518927
  H        47.6298261633       23.5758360216        1.2461899710
  H        14.8724008555        8.5882987290        4.6085846150
  H        50.2870003006       22.7026672896       12.0603368287
  H        49.2689643328       24.5755138031       13.3603600056
  H        45.6103528381       24.1090029942       11.1460879340
  H        46.6525045320       22.2537097512        9.8318392927
  H        47.6076108452       23.5517396440       14.7968700524
  H        40.6572575924       17.1172520361       11.4298620374
  H        48.6870755976       14.0948973406        7.8000191650
  H        10.6816431179       12.4669994926       12.0935073232
  H        11.6899013106       10.5251566588       13.2972404764
  H        15.3935043462       11.1585886130       11.2049735607
  H        14.3649518611       13.0868470164        9.9895214830
  H        13.3756925362       11.6221133051       14.7532032039
  H        47.9301997175       14.2182998606        9.7108072021
  H        47.7800206352       14.3734981862        6.4951822973
  H        49.0839723972       18.5523491017       10.8673523033
  H        10.4163215294       14.1343854614        7.9985794071
  H        24.4901282944        3.0391382109        3.9201965761
  H        25.6252172346        4.9053262610        2.6997572648
  H        23.2373291264        7.7586122409        4.8570520608
  H        22.1207686148        5.8831841820        6.0795328565
  H        23.8050530662        5.8002220456        1.2782116344
  H        36.3417689074       32.1821874288        3.9932188427
  H        35.1851927515       30.3648299348        2.7387525059
  H        37.4469041907       27.4297546671        4.9229347041
  H        38.5838368505       29.2604716714        6.1873014648
  H        36.9645231120       29.4481988380        1.3242564145
  H        25.7231160467        8.6288656421        4.6599184030
  H        36.4564798381       32.2412071389       12.1182041175
  H        35.3485586757       30.4293295717       13.4221591506
  H        37.5599636516       27.4868886706       11.1946971350
  H        38.6413728002       29.3105230693        9.8769079662
  H        37.0178550269       29.4717537524       14.8779368113
  H        46.1090755513       26.5874998905       11.3856137138
  H        44.6684241667       35.1163151357        7.8139226660
  H        24.4254540288        3.0436920821       12.1015902158
  H        25.5497234916        4.8842887962       13.3557837055
  H        23.1619215276        7.7702567964       11.2426172545
  H        22.0488226962        5.9177213718        9.9886047924
  H        23.7809255798        5.7985908111       14.8300238574
  H        44.9544382539       34.3910264417        9.6956038497
  H        44.9022767512       34.2070563442        6.4905778857
  H        40.6668571952       33.2093883454       10.8532427858
  H        23.1501994151        1.9582881871        8.0058740497
  H        25.9239356910       19.6607220044        3.7937096906
  H        23.7315501495       19.7587117507        2.6118402581
  H        22.3562754666       16.3765236778        4.8861046006
  H        24.5453279846       16.3024480548        6.0765815506
  H        23.7397339531       17.7330605429        1.2350930983
  H        35.1073450488       15.4789058847        3.9588375308
  H        37.2302435597       15.4193413551        2.6577460151
  H        38.7025501545       18.7684016674        4.9224824449
  H        36.5746812737       18.8072333109        6.2327526948
  H        37.2185347767       17.3809110445        1.2451921359
  H        20.3976205955       18.1090542096        4.6761445996
  H        35.1924223507       15.4535348100       12.0810105637
  H        37.3265292451       15.3938007721       13.3745067759
  H        38.7366153775       18.8197622469       11.1880464555
  H        36.5993369208       18.8582375243        9.8884357125
  H        37.2409130442       17.3870711571       14.7965285444
  H        35.1772563539       26.6847100970       11.4140344373
  H        28.5126993548       21.0931139214        8.0056335523
  H        25.7412468951       19.6559306491       12.1359567554
  H        23.5577554178       19.7162559626       13.3502196969
  H        22.3005159662       16.1799644408       11.2501757304
  H        24.4843243494       16.1393278353       10.0327483269
  H        23.7032282363       17.6812966455       14.7888481884
  H        29.0289089003       21.7088242154        9.7540657918
  H        29.0696930012       21.7915336247        6.5966711520
  H        32.0719711680       18.5340849644       11.0024333695
  H        27.3929022440       19.0786843175        8.0886343896
  H        14.8447285346       19.6551588465       12.1345389295
  H        17.0033618234       19.7091921673       13.3828435736
  H        18.2918780069       16.1775303348       11.2932478955
  H        16.1301000732       16.1410203150       10.0421324989
  H        16.9251522038       17.7389979247       14.8793661855
  H        46.0969563828       15.4472546200       12.0753256773
  H        43.9766017707       15.3923802853       13.3892273577
  H        42.5584091448       18.8265178220       11.2210826232
  H        44.6785060464       18.8552650218        9.8958513597
  H        44.0251628566       17.3219083786       14.8564060717
  H        20.2750438506       17.9161250838       11.4296543419
  H        46.0354727268       15.3762347247        4.0465911055
  H        43.9009714671       15.3058504344        2.7578852197
  H        42.5075601086       18.7713441664        4.8905962415
  H        44.6487564108       18.8281504484        6.1801536574
  H        44.0029954858       17.2909720744        1.3054344029
  H        46.1996688803       26.6827276882        4.6234069646
  H        52.7409556935       21.0626523859        8.1946588818
  H        14.8791056453       19.7106641893        3.9253089681
  H        17.0810079494       19.8264879362        2.7567075694
  H        18.3770997977       16.3068041619        4.8605752011
  H        16.1767724836       16.2150242314        6.0398693750
  H        16.9600451636       17.7883175640        1.3256399202
  H        52.3217590919       21.6729805711        6.2944862985
  H        52.0129158340       21.7016718968        9.4957935206
  H        49.0674415744       18.6070597786        5.2041869066
  H        13.2476251584       19.0169239805        7.9787824916
  H        29.9226478520       12.4860558326       12.2778926726
  H        28.8498455933       10.5596657082       13.4507631932
  H        25.2527056340       11.1807928042       11.1762226632
  H        26.3455793294       13.0940706210        9.9943978357
  H        27.1192089280       11.7001199425       14.7978390164
  H        31.0002357099       22.7844591904       12.0114863105
  H        32.0120111860       24.6578591513       13.3090479147
  H        35.7050128440       24.1311543802       11.1677702384
  H        34.6733160275       22.2631803595        9.8651328148
  H        33.6888539708       23.5647519951       14.7515821508
  H        25.6976345746        8.5974963172       11.4137703572
  H        30.8797763226       22.6022011676        3.7976772876
  H        31.8922559263       24.5075941453        2.5563645395
  H        35.4589171095       24.1578351871        4.9369634254
  H        34.4235869365       22.2678988237        6.1922302345
  H        33.6247275391       23.5461527108        1.1975190836
  H        40.5798940535       17.0566151474        4.6694328846
  H        32.5065633149       14.1498620747        8.2477291201
  H        29.8470218770       12.5918296449        3.8847009144
  H        28.8220008424       10.6863595248        2.6397099977
  H        25.1935310777       11.1734680266        4.8983928731
  H        26.2414309575       13.0615912847        6.1553671932
  H        27.1112158721       11.7206322788        1.2448474795
  H        33.3022600409       14.2126689542        6.4524578612
  H        33.4080763066       14.4028036053        9.5988764489
  H        32.0626338302       18.4763014292        5.1565704425
  H        30.1862806927       14.1558071660        8.0764791762
  H        16.1179279751        2.9635278842       12.1293290203
  H        14.9529514896        4.8207978449       13.3219994918
  H        17.3676548453        7.6859170367       11.2110058725
  H        18.5162285408        5.8182654503       10.0113538392
  H        16.7540707428        5.7399317638       14.7714945884
  H        44.8276965838       32.1402502575       11.9772009693
  H        45.9369859641       30.3414490319       13.3066248304
  H        43.6826878969       27.3780939880       11.1521134827
  H        42.6000483658       29.1899539065        9.8093809298
  H        44.2304990326       29.4368068572       14.7690505567
  H        14.8517085657        8.5464941983       11.3633162028
  H        44.8999384369       32.2341503160        3.9318131870
  H        46.0249143123       30.4131914457        2.6523606867
  H        43.7640685790       27.4841220437        4.8457197913
  H        42.6461481087       29.3177822009        6.1247410885
  H        44.2688440859       29.4706390325        1.2183129922
  H        34.9569062409       26.6182252635        4.6555264319
  H        36.6054496707       35.1338518850        8.1807153254
  H        16.1434676489        3.0130591435        3.9043258717
  H        14.9739763732        4.8565175218        2.6885999146
  H        17.3970511482        7.7472127225        4.7545136405
  H        18.5440023811        5.8932665332        5.9820961348
  H        16.7651175189        5.7558111352        1.2192736380
  H        36.2793416074       34.4817722126        6.2729287083
  H        36.3815432107       34.2086801020        9.4993855217
  H        40.5784270487       33.2014500297        5.1540306689
  H        17.4713284470        1.9469569614        7.9739788974
  H        29.3110205607       19.4575512385       12.6493581625
  H        31.9502946487       15.9706633085        3.5836927521
  H        31.3001214649       15.5814712156       12.5042692641
  H        28.0003268149       17.9596338923       14.3213256504
  H        29.4033860199       15.5224102624       14.5722835282
  H        32.8578629029       17.0531628297        1.2889521365
  H        18.8532878145        0.8688967798       12.3351087676
  H        40.5282957865       35.2285752717        3.9519961039
  H        42.3242439432       34.4189070412        3.5902153535
  H        22.0875201034        0.6925943024       12.3511420990
  H        11.5969799258       18.7131988660       12.3821596526
  H        52.2649619852       18.4307413383        3.6769896721
  H        49.2555575158       16.4766774272        3.5841763206
  H        10.1507549748       15.7980964284       12.2926540008
  H        50.8500358653       17.6923349663        3.9543277913
  H        10.0464774131       17.3944817960       12.0519877086
  H        20.2147319858        0.0022628389       12.0419219616
  H        39.1839112551       36.1244877008        3.6866296960
 Ni        30.4388507843       17.2258809733        2.4994004936
 Ni        31.1558851060       16.3255079992       -0.0826250681
 Ni        29.5025993890       17.9187744935        0.3290641546
 Ni        30.0232305034       17.3211149677       13.1604651374
  O        10.6500550875       14.3651219439        5.4858836825
  O        12.6133308177       14.6577239276        6.5838873952
  O        49.1478572047       16.8458994070        7.9896719653
  O        50.3503400533       20.9355408973        5.6479706355
  O        48.3485889749       20.5932529678        6.6658961190
  O        11.0518340755       17.0536744481        6.5008142888
  O        50.3209900535       20.8816458963       10.4067836555
  O        48.3467497625       20.5867004610        9.3270402291
  O        49.5437559210       18.2483491702       10.0681027404
  O        12.3594420579       18.6244187853        7.9994313515
  O        48.6932764605       14.1486131131        6.7512919289
  O         8.2099213263       14.2104219655        9.3224904159