     570
 i =      113, E =     -4745.5000292467
  C        11.8586538706       14.0535285716        5.7415798559
  C        12.4561933044       12.8904852808        5.0233255545
  C        11.7046009205       12.1718054230        4.0814182470
  C        12.2809530647       11.1095937453        3.3890387990
  C        13.6214230703       10.7395960604        3.6170111328
  C        14.3544614455       11.4428484561        4.5908060984
  C        13.7815663542       12.5078073812        5.2823344957
  C        14.2610546704        9.6490259417        2.8435894235
  C        14.2564866387        9.6569985574        1.4218870102
  C        13.7431523788       10.7590510806        0.6679868413
  C        49.1266031572       21.2332967650        5.8797866941
  C        48.5497957230       22.4011607845        5.1526173368
  C        49.2999307451       23.0686746893        4.1718402638
  C        48.7329989170       24.1077922521        3.4386259123
  C        47.4023620838       24.5091870965        3.6670647226
  C        46.6712279071       23.8600348855        4.6802448312
  C        47.2336906683       22.8151358552        5.4096028228
  C        46.7722075208       25.5869368398        2.8698048256
  C        46.7612620066       25.5573759140        1.4480467808
  C        47.2610339821       24.4421935506        0.7045819839
  C        14.8605952959        8.5707611575        0.7086119567
  C        14.8918991809        8.5970996757        3.5202135509
  C        49.1130703987       21.2034434270       10.1454110418
  C        48.5276459633       22.3646867935       10.8727218459
  C        49.2670317332       23.0257690233       11.8652684940
  C        48.6906622702       24.0602910369       12.5967391099
  C        47.3600812472       24.4566633352       12.3588140135
  C        46.6394103723       23.8112728876       11.3357997711
  C        47.2130065641       22.7753714137       10.6040349813
  C        46.7217327427       25.5317476065       13.1497709278
  C        46.7335074195       25.5281875875       14.5714675517
  C        47.2487646227       24.4288739227       15.3278216728
  C        40.6344610078       17.0949137726       15.3241123048
  C        40.6532487505       17.1407435416       12.5155376775
  C        11.8828071221       14.0865364983       10.2854359760
  C        12.4721530981       12.9105983616       10.9896133821
  C        11.7146730623       12.1775514888       11.9158506295
  C        12.2812550611       11.0951032190       12.5843104355
  C        13.6200070662       10.7212555000       12.3523596785
  C        14.3578898984       11.4365785631       11.3913071892
  C        13.7924560472       12.5177179142       10.7185734007
  C        14.2537219358        9.6246038965       13.1228050958
  C        14.2525867666        9.6446370454       14.5446442918
  C        13.7425928061       10.7535215069       15.2917321508
  C        22.5111742345        3.2455020514        5.7533651980
  C        23.2221134004        4.3542129929        5.0550986665
  C        24.2228373384        4.0814292338        4.1108130013
  C        24.8444034006        5.1258140647        3.4308372206
  C        24.4805428204        6.4652846869        3.6743810735
  C        23.5083584280        6.7296380383        4.6561669010
  C        22.8826665530        5.6872705921        5.3348281740
  C        25.0790096017        7.5762030734        2.8992885617
  C        25.0569302133        7.5656534477        1.4776180373
  C        24.3627272237        6.5607562715        0.7315111396
  C        38.3048775133       31.9314345060        5.8490175765
  C        37.5798231017       30.8417049605        5.1373812201
  C        36.6162812361       31.1443265864        4.1635545702
  C        36.0033658899       30.1229665048        3.4438348890
  C        36.3407938496       28.7755539684        3.6770257043
  C        37.2759638038       28.4801492284        4.6863440272
  C        37.8922509612       29.5001653937        5.4054156025
  C        35.7386678288       27.6842190720        2.8814818948
  C        35.7550165103       27.7050482674        1.4604176863
  C        36.4558588104       28.7094492542        0.7211175448
  C        25.6768032291        8.6370330492        0.7572616735
  C        25.6644186334        8.6578883190        3.5699599742
  C        38.3279651385       31.9628311116       10.1553327242
  C        37.6027082231       30.8912341899       10.8958273368
  C        36.6711880361       31.2033305001       11.8978301727
  C        36.0566891203       30.1871633544       12.6266898611
  C        36.3597560315       28.8338164566       12.3770195211
  C        37.2688152310       28.5315324691       11.3447795796
  C        37.8853610527       29.5443320436       10.6170170369
  C        35.7487723236       27.7374651006       13.1624616065
  C        35.7605380024       27.7320530450       14.5842066777
  C        36.4584666743       28.7221528062       15.3445310401
  C        46.1356729768       26.6209397153       15.2815627681
  C        46.0878431506       26.5800958599       12.4736671237
  C        22.4613307235        3.2568608620       10.2591620620
  C        23.1549883932        4.3660669845       10.9832346076
  C        24.1552518151        4.0810156959       11.9265241679
  C        24.7823194170        5.1115419622       12.6233815501
  C        24.4300090217        6.4578277547       12.3999371935
  C        23.4529441770        6.7360224704       11.4250613111
  C        22.8211161142        5.7058157077       10.7289349108
  C        25.0587958530        7.5576975182       13.1747760420
  C        25.0474413836        7.5550796819       14.5978715188
  C        24.3556115992        6.5572764939       15.3546266624
  C        26.6285306830       17.8572746863        5.7440934670
  C        25.3257455845       17.9087676697        5.0146545207
  C        25.0497749373       18.9187753543        4.0799971180
  C        23.8301560763       18.9421658534        3.4058179054
  C        22.8498365492       17.9579474479        3.6453242082
  C        23.1221530113       16.9685870311        4.6083420069
  C        24.3424869957       16.9414985242        5.2806468798
  C        21.5726362801       17.9449934243        2.8887654437
  C        21.5731449814       17.9200347081        1.4671244042
  C        22.7790838523       17.7911547231        0.7083633048
  C        34.4735589880       17.2490953631        5.9598994930
  C        35.7618838141       17.1783872046        5.2147421647
  C        35.9414371832       16.2059201683        4.2186934643
  C        37.1137558328       16.1760633823        3.4692630650
  C        38.1364669853       17.1170374077        3.6959575746
  C        37.9597898055       18.0685845801        4.7190133320
  C        36.7849656456       18.1047713517        5.4657277793
  C        39.3842819172       17.1106229697        2.9002264725
  C        39.3771505934       17.1154003464        1.4780334757
  C        38.1695185098       17.2327582856        0.7203489628
  C        20.3269513061       17.9375121224        0.7593279373
  C        20.3493965504       17.9479639874        3.5733221457
  C        34.5000640116       17.2159602408       10.1503828171
  C        35.7947086285       17.1465466746       10.8820504582
  C        36.0007781602       16.1605803588       11.8586150714
  C        37.1787990307       16.1434604393       12.5989966229
  C        38.1792423271       17.1094058987       12.3794881643
  C        37.9793149413       18.0716062817       11.3718935351
  C        36.7978778371       18.0961430513       10.6364961601
  C        39.4224276511       17.1228173027       13.1800083019
  C        39.3971072823       17.1221147711       14.6012222664
  C        38.1787717323       17.2334769577       15.3430899539
  C        35.1293796946       26.6544123505       15.2899753633
  C        35.1566229521       26.6668708214       12.4815540592
  C        26.5732806424       17.8284920318       10.3278343505
  C        25.2586447725       17.8747580632       11.0319910007
  C        24.9996840611       18.8725948834       11.9836096479
  C        23.7797903162       18.9001680425       12.6532999051
  C        22.7915570663       17.9285297771       12.3974363630
  C        23.0461984151       16.9548214260       11.4147067592
  C        24.2658873495       16.9261016351       10.7415963765
  C        21.5273332759       17.9096927818       13.1689162824
  C        21.5499711267       17.8987165254       14.5902957345
  C        22.7679016308       17.7796101207       15.3322922975
  C        14.0458108425       17.8294583591       10.2873529217
  C        15.3508570342       17.8882479736       11.0107509066
  C        15.6077800900       18.8936858167       11.9556492914
  C        16.8172540768       18.9159450698       12.6473008695
  C        17.8028985306       17.9356010926       12.4152240291
  C        17.5509697442       16.9544853232       11.4379046213
  C        16.3408641250       16.9276591886       10.7480567190
  C        19.0714100222       17.9187509210       13.1839682848
  C        19.0687433701       17.9155853844       14.6062551958
  C        17.8614260284       17.8176719638       15.3673943601
  C        46.8053646847       17.2184246791       10.1590677904
  C        45.5174174930       17.1547689776       10.9057857559
  C        45.3147128715       16.1738057654       11.8888462034
  C        44.1348034815       16.1523811335       12.6270866227
  C        43.1283777499       17.1123439646       12.4046567034
  C        43.3285055397       18.0730917320       11.3948901283
  C        44.5089008081       18.0981340930       10.6570074093
  C        41.8766297573       17.1193461414       13.1942918350
  C        41.8817308293       17.1096907195       14.6159054241
  C        43.0909595489       17.2002559754       15.3742208078
  C        20.3149556314       17.9261231279       15.3146557762
  C        20.2955510891       17.8997470213       12.5020036675
  C        46.7865596626       17.2293686825        5.8911333000
  C        45.4842694890       17.1191154380        5.1783216232
  C        45.2682553527       16.1158389553        4.2215576450
  C        44.0813404780       16.0849254939        3.4945362526
  C        43.0823478362       17.0541705835        3.7083209820
  C        43.2884760802       18.0266778566        4.7044487776
  C        44.4764505416       18.0640616111        5.4266198480
  C        41.8375367069       17.0739032316        2.9112855536
  C        41.8617341328       17.0853641610        1.4908871911
  C        43.0814786249       17.1862773586        0.7506986603
  C        46.1534289105       26.6373617357        0.7263132527
  C        46.1623406788       26.6560706312        3.5359492110
  C        14.0447789526       17.8318367543        5.7082960241
  C        15.3654287257       17.9073266760        5.0159743470
  C        15.6362355824       18.9236122141        4.0875564895
  C        16.8641788454       18.9631410773        3.4306803325
  C        17.8493483111       17.9857115790        3.6767394005
  C        17.5852252770       16.9979717507        4.6430826156
  C        16.3591286758       16.9578518365        5.3032513943
  C        19.1163372349       17.9635519852        2.9067435768
  C        19.0921326283       17.9380594336        1.4850020155
  C        17.8726165549       17.8276964402        0.7437967954
  C        28.8112450846       14.0945353941       10.3916166142
  C        28.1942468168       12.9241636620       11.0817437567
  C        28.9121016761       12.1905587357       12.0382507900
  C        28.3107596881       11.1172822464       12.6911560803
  C        26.9779534440       10.7529899655       12.4112803891
  C        26.2823112069       11.4675059250       11.4194265379
  C        26.8807936310       12.5415033248       10.7655592837
  C        26.3069503046        9.6737560874       13.1718871978
  C        26.2876948382        9.7047027183       14.5929693446
  C        26.7838912210       10.8215637691       15.3376993921
  C        32.1782597430       21.2471635258       10.1486984468
  C        32.7682918867       22.4133178042       10.8662114754
  C        32.0136896207       23.0911926389       11.8361200083
  C        32.5790172170       24.1332117072       12.5641006984
  C        33.9137927495       24.5232870793       12.3430791400
  C        34.6510153403       23.8632602707       11.3420656564
  C        34.0882919790       22.8162109846       10.6154773905
  C        34.5395140858       25.5997999236       13.1431968984
  C        34.5304193970       25.5727249027       14.5648617064
  C        34.0134236515       24.4621333851       15.3046309097
  C        25.6781380724        8.6270406334       15.3121741718
  C        25.6749221229        8.6198204577       12.4986644883
  C        32.1147603139       21.2379340011        5.8863434161
  C        32.7063518835       22.3895878119        5.1462353477
  C        31.9520433404       23.1090043400        4.2059595443
  C        32.5366410358       24.1306304368        3.4625144343
  C        33.8902104777       24.4701900031        3.6487004613
  C        34.6300487383       23.7702381113        4.6203256613
  C        34.0502453706       22.7380308125        5.3536639691
  C        34.5269583625       25.5515973410        2.8619197489
  C        34.5205123371       25.5499591992        1.4406041263
  C        34.0053306609       24.4526520510        0.6816648412
  C        40.6237841197       17.0868074919        0.7685881117
  C        40.6085029936       17.1051529878        3.5775879069
  C        28.7168309885       14.0977736179        5.8201727250
  C        28.0947100658       12.9575095700        5.0835841243
  C        28.8269231108       12.2548854059        4.1137630562
  C        28.2436040269       11.2001509504        3.4169385269
  C        26.9098205373       10.8177428090        3.6640218021
  C        26.1928817665       11.5077819616        4.6598774341
  C        26.7750578874       12.5650157285        5.3580257538
  C        26.2722650346        9.7229496884        2.8925154274
  C        26.2711859237        9.7301879644        1.4701282438
  C        26.7733597594       10.8354576853        0.7137454534
  C        18.1354578367        3.1811001512       10.3172317535
  C        17.4061864447        4.2783367110       11.0158128999
  C        16.3905498256        3.9999960528       11.9434267898
  C        15.7428544977        5.0399941874       12.6069090824
  C        16.0947113995        6.3837098311       12.3671127042
  C        17.0839880147        6.6532028122       11.4032367910
  C        17.7330740724        5.6158482190       10.7382119159
  C        15.4704035073        7.4914192424       13.1301216382
  C        15.4858585362        7.4907993064       14.5518231872
  C        16.1876635777        6.4973389585       15.3049668011
  C        42.9460434410       31.8595464281       10.0730198725
  C        43.6464701779       30.7719445403       10.8168467827
  C        44.5919731423       31.0932690078       11.8029622033
  C        45.1976940155       30.0877160904       12.5505854132
  C        44.8713049382       28.7346347195       12.3357006527
  C        43.9455318130       28.4202870571       11.3224340938
  C        43.3367219633       29.4254343925       10.5744129387
  C        45.4888216619       27.6553422849       13.1389191480
  C        45.4930868423       27.6811018297       14.5606032717
  C        44.8061105930       28.6892174480       15.3072282236
  C        14.8568145915        8.5632424849       15.2641838055
  C        14.8749278604        8.5630655229       12.4515248973
  C        42.9465229819       31.9615468798        5.8090524144
  C        43.6918109387       30.8854928421        5.0956726308
  C        44.6560807976       31.1914570781        4.1230522888
  C        45.2776409345       30.1718985448        3.4053476775
  C        44.9542108640       28.8215253981        3.6432113182
  C        44.0211174039       28.5238150287        4.6543586661
  C        43.3928450499       29.5405470749        5.3665605134
  C        45.5631970648       27.7241690312        2.8579106928
  C        45.5335696938       27.7175808205        1.4366066489
  C        44.8273433849       28.7078553337        0.6836211866
  C        35.1258943974       26.6415444595        0.7345115430
  C        35.1472441635       26.6032813227        3.5447671462
  C        18.1487009575        3.2471226351        5.7066301892
  C        17.4301993557        4.3439683612        4.9972937109
  C        16.4151306239        4.0527320077        4.0735624771
  C        15.7668860276        5.0833820318        3.3981510947
  C        16.1214482424        6.4286156197        3.6210295985
  C        17.1126841768        6.7119574137        4.5784451527
  C        17.7602991641        5.6830269577        5.2582287681
  C        15.4909545387        7.5243121967        2.8486105147
  C        15.4969711902        7.5077450464        1.4274836474
  C        16.1939165762        6.5061728575        0.6807792453
  H        10.6725389756       12.4661161262        3.9042641339
  H        11.6946878456       10.5512859014        2.6623436376
  H        15.3913794122       11.1679798905        4.7727708636
  H        14.3508351543       13.0708045556        6.0180934536
  H        13.3758929861       11.6310615976        1.2013121539
  H        50.3227028696       22.7487511026        3.9872818385
  H        49.3194940997       24.6231990219        2.6811550150
  H        45.6415762674       24.1604565966        4.8630873387
  H        46.6625144774       22.2895970855        6.1713730995
  H        47.6292504098       23.5756993738        1.2463020718
  H        14.8720895099        8.5882503653        4.6085169052
  H        50.2872029355       22.7031697057       12.0599182707
  H        49.2690903025       24.5760230897       13.3600273742
  H        45.6097737702       24.1079939978       11.1471834349
  H        46.6519490565       22.2527173954        9.8329726785
  H        47.6072433997       23.5516258773       14.7969263875
  H        40.6588339701       17.1161894003       11.4275584145
  H        48.6870950008       14.0946215256        7.8000375363
  H        10.6812481326       12.4667518836       12.0933473663
  H        11.6894658137       10.5248195375       13.2971010463
  H        15.3932562908       11.1585321297       11.2052464136
  H        14.3646581254       13.0869452214        9.9898252986
  H        13.3755071695       11.6220200092       14.7530825887
  H        47.9299781805       14.2181739685        9.7104439992
  H        47.7800437375       14.3731793528        6.4952505298
  H        49.0832121448       18.5520367696       10.8672228086
  H        10.4156854608       14.1342824749        7.9987045864
  H        24.4913582973        3.0447846126        3.9197336818
  H        25.6206628647        4.9139277769        2.6987483644
  H        23.2197546488        7.7604702855        4.8508542976
  H        22.1098226016        5.8820878283        6.0742990048
  H        23.8034668631        5.8025112965        1.2717663712
  H        36.3727975798       32.1869587508        3.9735349154
  H        35.2546595083       30.3590023900        2.6908804499
  H        37.5436074444       27.4419299916        4.8714620091
  H        38.6398291375       29.2823264987        6.1643763637
  H        37.0247222553       29.4577549486        1.2652050026
  H        25.6949165270        8.6435941650        4.6579724812
  H        36.4499052023       32.2483103997       12.1028274094
  H        35.3290683314       30.4343327003       13.3965684533
  H        37.5145239706       27.4904916478       11.1457496926
  H        38.6098972359       29.3163351592        9.8390452060
  H        37.0303951708       29.4799074005       14.8167827630
  H        46.1091081438       26.5873158750       11.3856275368
  H        44.6683520544       35.1162111817        7.8138706347
  H        24.4325162996        3.0429197942       12.0954665239
  H        25.5614946908        4.8821429147       13.3471719325
  H        23.1686464835        7.7704019722       11.2426914914
  H        22.0511521438        5.9191412574        9.9910415350
  H        23.7900623210        5.7971389084       14.8235113141
  H        44.9540464908       34.3905686947        9.6952789276
  H        44.9016247494       34.2068399045        6.4904748031
  H        40.6661453392       33.2092829071       10.8532815848
  H        23.1505072458        1.9581858346        8.0055735145
  H        25.7954664121       19.6901138475        3.9020344225
  H        23.6202896467       19.7319878114        2.6876291026
  H        22.3773608449       16.1988860318        4.8003173407
  H        24.5628882463       16.1663883407        6.0108733903
  H        23.7188619412       17.6695567407        1.2389179692
  H        35.1420802546       15.4913684615        4.0368881615
  H        37.2514209395       15.4162906116        2.7031006109
  H        38.7428785309       18.8024283775        4.8978468722
  H        36.6315355215       18.8552287927        6.2377194986
  H        37.2286704398       17.3547826059        1.2495334030
  H        20.3570451479       17.9884226620        4.6611669043
  H        35.2178166131       15.4275588693       12.0368436374
  H        37.3370321950       15.3779135117       13.3553514618
  H        38.7465721259       18.8235912478       11.1999683117
  H        36.6209338857       18.8566316193        9.8797008454
  H        37.2448454010       17.3555289348       14.8015606433
  H        35.1298154838       26.6901214279       11.3937878100
  H        28.5065695421       21.0776348750        8.0058984276
  H        25.7679574780       19.6161466460       12.1829510122
  H        23.5780673294       19.6784874242       13.3860221691
  H        22.2918781994       16.1973004538       11.2119889265
  H        24.4784904673       16.1626245921        9.9971272214
  H        23.6991287431       17.6495060883       14.7889950307
  H        28.9956694008       21.7208837543        9.7638459377
  H        29.1591265391       21.7450361957        6.6409964446
  H        32.1347029028       18.5280549343       11.0021161846
  H        27.4052264747       19.0792916963        8.0883376088
  H        14.8490393209       19.6526815783       12.1327125691
  H        17.0135885769       19.7013455276       13.3740162403
  H        18.3022305976       16.1899584595       11.2506919283
  H        16.1335038710       16.1571995184       10.0092449490
  H        16.9191148638       17.7020607209       14.8397293139
  H        46.0988760878       15.4418350005       12.0671034720
  H        43.9772748041       15.3837149999       13.3804535456
  H        42.5589731890       18.8219054054       11.2191542108
  H        44.6799923204       18.8537704882        9.8938810654
  H        44.0326135088       17.3149478512       14.8450527843
  H        20.2894443269       17.9308759451       11.4139160421
  H        46.0465219607       15.3760307186        4.0489680390
  H        43.9153401198       15.3075406444        2.7519359629
  H        42.5208930754       18.7787205471        4.8744731080
  H        44.6584945264       18.8336224692        6.1726955461
  H        44.0159309065       17.2887651480        1.2947084884
  H        46.1991012633       26.6825007380        4.6233990546
  H        52.7408306460       21.0624512840        8.1946246516
  H        14.8743203242       19.6763319239        3.8973291268
  H        17.0728183386       19.7543555376        2.7137540974
  H        18.3368878482       16.2364391126        4.8405434890
  H        16.1400570919       16.1823840292        6.0332713614
  H        16.9388555400       17.7196620720        1.2874374890
  H        52.3213964744       21.6730020858        6.2947466553
  H        52.0124210945       21.7014438898        9.4955226855
  H        49.0669691758       18.6075605139        5.2046662466
  H        13.2471389431       19.0167413830        7.9769876202
  H        29.9402286012       12.4739222495       12.2537538384
  H        28.8694932783       10.5476603223       13.4306177826
  H        25.2523987490       11.1966140915       11.1961795610
  H        26.3406605289       13.1142437413       10.0157300595
  H        27.1477012082       11.6901220199       14.7970666049
  H        30.9888913758       22.7748092807       12.0151386032
  H        31.9900743396       24.6585014019       13.3127159851
  H        35.6846584097       24.1551870055       11.1682199391
  H        34.6630166646       22.2800058259        9.8639029313
  H        33.6479625139       23.5954590607       14.7609974884
  H        25.7088835635        8.5982029278       11.4108014987
  H        30.9031812676       22.8598914683        4.0653475771
  H        31.9464946467       24.6849549040        2.7359853225
  H        35.6777714367       24.0233718552        4.7688645963
  H        34.6265214621       22.1724862016        6.0822569888
  H        33.6322664426       23.5795946986        1.2100725536
  H        40.6029948209       17.0722185755        4.6653668601
  H        32.5081986229       14.1402901094        8.2605804310
  H        29.8574649562       12.5443148381        3.9237898459
  H        28.8217164796       10.6535356197        2.6750833855
  H        25.1608650105       11.2261011515        4.8588755563
  H        26.2169306327       13.1111005339        6.1149790829
  H        27.1280101097       11.7147939886        1.2436071063
  H        33.3081261935       14.2273268707        6.4564521297
  H        33.4067956921       14.4144757711        9.5973987430
  H        32.1006804083       18.5209747026        5.0509228393
  H        30.2320561450       14.1957236267        8.0693014743
  H        16.1185377003        2.9634948584       12.1299081663
  H        14.9534685910        4.8206782945       13.3226580533
  H        17.3663649979        7.6860767074       11.2100438979
  H        18.5150772831        5.8184509959       10.0103164242
  H        16.7543493711        5.7401075755       14.7714487782
  H        44.8282640967       32.1403423382       11.9771773917
  H        45.9375552735       30.3414592120       13.3065365568
  H        43.6828839444       27.3782101876       11.1522827233
  H        42.6002023411       29.1900290817        9.8096804925
  H        44.2307938820       29.4370039736       14.7689163822
  H        14.8509980442        8.5462176002       11.3633104962
  H        44.8993429037       32.2341553279        3.9313468271
  H        46.0242996103       30.4131743846        2.6518834174
  H        43.7644830857       27.4840509081        4.8461838429
  H        42.6467074105       29.3176483528        6.1253279982
  H        44.2688336177       29.4707779403        1.2181437918
  H        35.1210809989       26.6081350667        4.6327989055
  H        36.6052299761       35.1342155773        8.1805646199
  H        16.1441014177        3.0131557661        3.9037645977
  H        14.9746596584        4.8565904636        2.6879396395
  H        17.3960832528        7.7474313085        4.7554601161
  H        18.5430395593        5.8934410423        5.9831496996
  H        16.7655263105        5.7560608668        1.2192114784
  H        36.2789886688       34.4824123984        6.2732836963
  H        36.3815750982       34.2089584769        9.4994512817
  H        40.5815809227       33.2035500191        5.1536891444
  H        17.4708844420        1.9477571395        7.9743106833
  H        28.9854098870       19.1700013648       12.4707344667
  H        29.7982657179       20.5004789674        3.8754377443
  H        31.3116486122       15.0238374997        3.8867356167
  H        31.4960791349       15.6332247401       12.5639828068
  H        28.1369214358       17.5187503307       14.5124829565
  H        29.5767167612       15.0612870095       13.9549384420
  H        28.4164534810       17.1432439797        1.4120298874
  H        31.2162030540       19.4806553864       13.9020457860
  H        18.8538464460        0.8692716408       12.3352969928
  H        40.5279371741       35.2289727461        3.9519350319
  H        42.3251832406       34.4198772520        3.5900607445
  H        22.0878905718        0.6918506533       12.3518878209
  H        11.5969671660       18.7128160908       12.3824629506
  H        52.2646307120       18.4307321043        3.6773403354
  H        49.2551994152       16.4770725351        3.5846521034
  H        10.1493333559       15.7981696535       12.2933358118
  H        50.8495544226       17.6922830739        3.9543713541
  H        10.0455857556       17.3943280493       12.0520990995
  H        20.2151061482        0.0023343528       12.0419894282
  H        39.1838425941       36.1245506300        3.6864791439
 Ni        30.3092528491       16.7189101906        2.8304259924
 Ni        30.0538788429       16.1280669472       -0.0029871235
 Ni        30.1400612258       18.3840084095       -0.3305211766
 Ni        30.1394580741       17.3505995935       13.1591266515
  O        10.6500049664       14.3650524934        5.4857634367
  O        12.6132217794       14.6575243580        6.5838704145
  O        49.1480844448       16.8459812314        7.9898005053
  O        50.3501901164       20.9361730500        5.6482308006
  O        48.3485117346       20.5933512341        6.6659613616
  O        11.0515177936       17.0539487576        6.5005977241
  O        50.3210097741       20.8817638738       10.4068432347
  O        48.3467667651       20.5868348986        9.3271489841
  O        49.5439609584       18.2484964704       10.0683474857
  O        12.3589216353       18.6245345812        7.9996539943