     566
 i =      132, E =     -4712.2927889279
  C        11.8585192252       14.0535086806        5.7416110696
  C        12.4559812408       12.8904699926        5.0232793405
  C        11.7044114981       12.1719316529        4.0812443670
  C        12.2807129963       11.1096947343        3.3888617532
  C        13.6211109156       10.7394790203        3.6169309587
  C        14.3541362439       11.4426437050        4.5908060202
  C        13.7813037056       12.5076274751        5.2823557791
  C        14.2606155743        9.6488028471        2.8435374364
  C        14.2559832321        9.6567201350        1.4218291698
  C        13.7429349210       10.7588768565        0.6678873088
  C        49.1264643442       21.2333726372        5.8797755389
  C        48.5495730300       22.4011556216        5.1526667612
  C        49.2997000958       23.0686733894        4.1718683434
  C        48.7327196706       24.1077264976        3.4386168396
  C        47.4020523719       24.5090827767        3.6670008998
  C        46.6709569112       23.8599616854        4.6802486138
  C        47.2334555789       22.8151215007        5.4096604794
  C        46.7718835659       25.5867985454        2.8697071412
  C        46.7610790412       25.5572863727        1.4479460560
  C        47.2610640165       24.4422111782        0.7044638191
  C        14.8598223100        8.5703125551        0.7085784391
  C        14.8912658076        8.5967731303        3.5201896044
  C        49.1129270514       21.2034900124       10.1452956270
  C        48.5274976434       22.3647731294       10.8724322864
  C        49.2667697163       23.0256460769       11.8652192139
  C        48.6903953391       24.0601547183       12.5966871977
  C        47.3598864793       24.4567073804       12.3585999040
  C        46.6393707854       23.8115703249       11.3353001920
  C        47.2129771433       22.7757032122       10.6035016818
  C        46.7214580483       25.5316739854       13.1496308017
  C        46.7333421537       25.5281192248       14.5713289942
  C        47.2488142507       24.4289188831       15.3277033025
  C        40.6169950042       17.0818130535       15.3088143366
  C        40.6267265420       17.1033033214       12.4986294117
  C        11.8827128907       14.0864255804       10.2854358517
  C        12.4717934592       12.9103283674       10.9895055930
  C        11.7143197323       12.1775600377       11.9159810751
  C        12.2807141737       11.0950164852       12.5844350252
  C        13.6193164570       10.7207507908       12.3522521959
  C        14.3571812791       11.4357688515       11.3909533538
  C        13.7919333153       12.5170243543       10.7182480321
  C        14.2528790182        9.6240269862       13.1227301743
  C        14.2518906211        9.6441797489       14.5445750883
  C        13.7422559767       10.7532508249       15.2916296151
  C        22.5075911079        3.2428349496        5.7516735178
  C        23.2145465939        4.3483129215        5.0464360960
  C        24.2091914968        4.0689472883        4.0980222532
  C        24.8299303472        5.1092464217        3.4120387416
  C        24.4704015750        6.4495484960        3.6550982705
  C        23.5028376308        6.7205766326        4.6393621927
  C        22.8777962143        5.6821364386        5.3239154024
  C        25.0735013840        7.5564506675        2.8799929916
  C        25.0521665189        7.5485823088        1.4587881769
  C        24.3539100544        6.5484079137        0.7103222693
  C        38.2978660135       31.9279808221        5.8518273360
  C        37.5559042894       30.8401848340        5.1504494870
  C        36.5902925903       31.1485870979        4.1795935303
  C        35.9587001155       30.1318134070        3.4686228631
  C        36.2772211442       28.7799338854        3.7046757126
  C        37.2122411405       28.4790007663        4.7132637575
  C        37.8477530947       29.4947705527        5.4238900390
  C        35.6649402789       27.6928423840        2.9059097152
  C        35.7024451036       27.7081995988        1.4840958649
  C        36.4153840330       28.7083225486        0.7502945681
  C        25.6786829559        8.6179909633        0.7416289039
  C        25.6661453855        8.6317878308        3.5533035755
  C        38.3297452432       31.9597831886       10.1606649859
  C        37.6123824640       30.8867444682       10.9096783879
  C        36.6782268098       31.1963070167       11.9105902252
  C        36.0671739039       30.1796421715       12.6428175831
  C        36.3746942073       28.8255671914       12.3996427986
  C        37.2897478026       28.5259712906       11.3712996586
  C        37.9025095791       29.5391715974       10.6398631402
  C        35.7585158193       27.7277647323       13.1822185092
  C        35.7501947657       27.7260706415       14.6050811577
  C        36.4366241676       28.7180109506       15.3736455315
  C        46.1353540098       26.6207697249       15.2814526980
  C        46.0873672643       26.5799345954       12.4735656717
  C        22.4607563768        3.2545369381       10.2551377066
  C        23.1563326342        4.3635320878       10.9746400353
  C        24.1627517176        4.0778960657       11.9105891829
  C        24.7914035026        5.1088184319       12.6041824750
  C        24.4326336410        6.4534137758       12.3836677825
  C        23.4498034643        6.7325888864       11.4156663705
  C        22.8167666900        5.7018748822       10.7223211774
  C        25.0612044687        7.5510019493       13.1588662166
  C        25.0469681736        7.5448719697       14.5810462316
  C        24.3492130791        6.5479733794       15.3336217828
  C        26.5660880290       17.8256226758        5.7855797449
  C        25.2641953365       17.8845831617        5.0586568660
  C        25.0123170872       18.8900911862        4.1128742893
  C        23.8033768098       18.9178327864        3.4218391334
  C        22.8134559562       17.9427486588        3.6563801167
  C        23.0602411212       16.9608065724        4.6336618492
  C        24.2706572101       16.9285650683        5.3226997576
  C        21.5471358185       17.9340135525        2.8856993855
  C        21.5557476662       17.9227923488        1.4639726009
  C        22.7657954394       17.8036908272        0.7099638740
  C        34.4109584898       17.2192306002        5.8785581236
  C        35.7123594910       17.1549233900        5.1512809633
  C        35.9163267980       16.1852854199        4.1570743022
  C        37.1036163405       16.1605023466        3.4311599686
  C        38.1185464473       17.1063018860        3.6757362535
  C        37.9183213058       18.0540733321        4.6976982212
  C        36.7296366152       18.0821765578        5.4239435244
  C        39.3729837792       17.1100632889        2.8884856777
  C        39.3654323416       17.1150870878        1.4660371611
  C        38.1569356369       17.2362236155        0.7101855999
  C        20.3128630136       17.9457323699        0.7504047969
  C        20.3208964275       17.9303339558        3.5631377563
  C        34.4343804641       17.2402507147       10.1834054942
  C        35.7336713828       17.1425328519       10.9104536831
  C        35.9411150732       16.1599559778       11.8901150189
  C        37.1318867469       16.1280637489       12.6121360983
  C        38.1455491034       17.0772376295       12.3748135305
  C        37.9440698643       18.0334214164       11.3616282883
  C        36.7525291949       18.0705275362       10.6431135509
  C        39.3965664766       17.0895659073       13.1666643464
  C        39.3776614560       17.1038203663       14.5883596706
  C        38.1627013032       17.2284451721       15.3333523547
  C        35.1093616811       26.6503391381       15.3062124477
  C        35.1762751079       26.6535780997       12.4963030075
  C        26.5732246127       17.8284467526       10.3281437206
  C        25.2584981122       17.8800236412       11.0328997926
  C        24.9932557429       18.8931668833       11.9665310609
  C        23.7747815330       18.9237759879       12.6388509739
  C        22.7926534997       17.9424947185       12.3982195928
  C        23.0518495678       16.9547525436       11.4311838300
  C        24.2714806201       16.9211509277       10.7585815900
  C        21.5267749637       17.9294106761       13.1661391567
  C        21.5447164103       17.9196474550       14.5871530757
  C        22.7600485278       17.8022421025       15.3336540587
  C        14.0459642941       17.8321106958       10.2841006964
  C        15.3529876522       17.8972983976       11.0013256736
  C        15.6116905018       18.9109756661       11.9367327877
  C        16.8224572990       18.9384558604       12.6252828048
  C        17.8061355507       17.9549163636       12.3994749166
  C        17.5533441927       16.9667045201       11.4298581088
  C        16.3420943511       16.9349135062       10.7426087659
  C        19.0722848655       17.9399552660       13.1707460465
  C        19.0635749673       17.9352826036       14.5925511998
  C        17.8522178777       17.8365986924       15.3469786624
  C        46.8013935631       17.2160276161       10.1569135555
  C        45.5073437112       17.1452484004       10.8966411876
  C        45.3007085683       16.1596091896       11.8745312455
  C        44.1162259441       16.1310053290       12.6062155208
  C        43.1066208024       17.0879569000       12.3835521271
  C        43.3098074798       18.0522420819       11.3775236781
  C        44.4951379641       18.0846335902       10.6463431402
  C        41.8531420125       17.0918969132       13.1739407421
  C        41.8620734846       17.0925963595       14.5964651287
  C        43.0725968990       17.1885268193       15.3527077696
  C        20.3067437912       17.9433970231       15.3061576564
  C        20.2984741275       17.9193365537       12.4935585964
  C        46.7837209171       17.2321674688        5.8863801997
  C        45.4819381610       17.1265618852        5.1667773600
  C        45.2645356559       16.1257395056        4.2072779523
  C        44.0772155304       16.0956944728        3.4795533307
  C        43.0763000507       17.0636947584        3.6927860040
  C        43.2849592745       18.0355918530        4.6895131602
  C        44.4731888487       18.0716706837        5.4129086702
  C        41.8282664920       17.0804381680        2.8969304645
  C        41.8494964261       17.0857254973        1.4752898874
  C        43.0666705618       17.1824617054        0.7298289053
  C        46.1531218291       26.6371968622        0.7262023388
  C        46.1618492193       26.6558539429        3.5358464958
  C        14.0397193333       17.8284265207        5.7064692665
  C        15.3538463812       17.8977561594        5.0064205398
  C        15.6236152759       18.9197055187        4.0843846516
  C        16.8478089328       18.9571304334        3.4219410687
  C        17.8265743786       17.9714974240        3.6574752573
  C        17.5624332590       16.9755082470        4.6146499444
  C        16.3404499978       16.9378368323        5.2809337584
  C        19.0929096810       17.9529766523        2.8903656106
  C        19.0745364828       17.9410374198        1.4693414314
  C        17.8576092195       17.8390799332        0.7232880660
  C        28.8119525072       14.0901688672       10.3947594409
  C        28.1994218577       12.9160359012       11.0803917412
  C        28.9264590118       12.1632991236       12.0143650678
  C        28.3254773257       11.0887315276       12.6651496585
  C        26.9847393041       10.7421350277       12.4029021998
  C        26.2795031114       11.4740532965       11.4312565750
  C        26.8774498659       12.5499963436       10.7808330680
  C        26.3140555909        9.6618516092       13.1611970687
  C        26.2965151522        9.6884533402       14.5816082051
  C        26.7996366447       10.8006676362       15.3283964925
  C        32.1809872184       21.2336616064       10.1430222132
  C        32.7770931104       22.3963195512       10.8680822287
  C        32.0221320207       23.0847390792       11.8305904748
  C        32.5892728697       24.1256571270       12.5597720021
  C        33.9283198873       24.5083027960       12.3489510948
  C        34.6668233925       23.8380503556       11.3552008264
  C        34.1016773020       22.7916599071       10.6274888585
  C        34.5510003137       25.5869150095       13.1522540220
  C        34.5239513720       25.5651372842       14.5745202276
  C        34.0031189317       24.4545826821       15.3112587081
  C        25.6812110238        8.6121877790       15.2975603551
  C        25.6793352377        8.6124309313       12.4847839344
  C        32.0697158980       21.2012875970        5.8780236691
  C        32.6393280208       22.3691111898        5.1412147228
  C        31.9036875852       23.0195960810        4.1386093905
  C        32.4750703027       24.0599484676        3.4077323123
  C        33.7966256767       24.4800162096        3.6587530502
  C        34.5128954312       23.8440124060        4.6912992273
  C        33.9466144549       22.8002409760        5.4180099335
  C        34.4373770487       25.5640513948        2.8762104047
  C        34.4643931024       25.5540493812        1.4535266457
  C        33.9731584382       24.4498279909        0.6880431909
  C        40.6102739168       17.0830023750        0.7542100790
  C        40.5985492612       17.1095384815        3.5647068323
  C        28.7317595608       14.0629525919        5.7872362019
  C        28.1143672493       12.9175273227        5.0585699387
  C        28.8517327164       12.2004235052        4.1037787599
  C        28.2645619369       11.1454116449        3.4111322982
  C        26.9247726591       10.7807244171        3.6498630717
  C        26.2045043601       11.4824387172        4.6341781148
  C        26.7899858545       12.5390872549        5.3284611523
  C        26.2809472418        9.6926805422        2.8774853618
  C        26.2796871828        9.7052481743        1.4562128321
  C        26.7888366206       10.8104230004        0.7042596440
  C        18.1351780761        3.1807135383       10.3172075426
  C        17.4055866225        4.2778702554       11.0157432954
  C        16.3901707983        3.9993267334       11.9435257280
  C        15.7422474826        5.0391960242       12.6070119259
  C        16.0936572826        6.3829907227       12.3670482172
  C        17.0826530726        6.6526857746       11.4029340167
  C        17.7319252864        5.6154545852       10.7378954458
  C        15.4692861950        7.4906514110       13.1300900286
  C        15.4847901461        7.4901199270       14.5518016687
  C        16.1864386282        6.4965803446       15.3049843242
  C        42.9457185647       31.8593555427       10.0728674893
  C        43.6459979958       30.7716958137       10.8167803211
  C        44.5916907593       31.0929865295       11.8027161976
  C        45.1973193955       30.0874088022       12.5503740284
  C        44.8706588595       28.7343751249       12.3356439612
  C        43.9446622980       28.4200693329       11.3225773870
  C        43.3359146431       29.4252379113       10.5745220940
  C        45.4882609053       27.6551054513       13.1388438484
  C        45.4925841163       27.6808542567       14.5605311390
  C        44.8055257364       28.6889235054       15.3071520461
  C        14.8559262921        8.5626899531       15.2641409459
  C        14.8738777199        8.5623393700       12.4514855036
  C        42.9463522054       31.9613873400        5.8089935772
  C        43.6914554255       30.8852947309        5.0954862302
  C        44.6562704316       31.1911891400        4.1233852585
  C        45.2777392061       30.1715913327        3.4056549512
  C        44.9536441839       28.8212984778        3.6430348351
  C        44.0198862775       28.5236384748        4.6535543473
  C        43.3916633572       29.5404143079        5.3657423488
  C        45.5627101789       27.7239271488        2.8577862015
  C        45.5331413581       27.7173400558        1.4364918046
  C        44.8268297386       28.7075785640        0.6835454360
  C        35.0818327379       26.6430763086        0.7520123071
  C        35.0499339742       26.6206326589        3.5626122552
  C        18.1483198527        3.2467814423        5.7066019717
  C        17.4296047036        4.3435912047        4.9972892564
  C        16.4145572489        4.0522578505        4.0735753820
  C        15.7661605356        5.0828664644        3.3982109058
  C        16.1205938264        6.4281388624        3.6210791902
  C        17.1117749121        6.7115680060        4.5785338672
  C        17.7595046581        5.6826861026        5.2582881962
  C        15.4901165002        7.5238378874        2.8486225009
  C        15.4960307412        7.5072105646        1.4274860017
  C        16.1927626309        6.5054818372        0.6807968401
  H        10.6724113216       12.4663819069        3.9039793427
  H        11.6944602260       10.5514729151        2.6620923911
  H        15.3910061054       11.1676576064        4.7728721429
  H        14.3505894697       13.0704848233        6.0182145491
  H        13.3760359271       11.6310684258        1.2011669764
  H        50.3225017577       22.7488315362        3.9873311140
  H        49.3192194371       24.6231489086        2.6811598030
  H        45.6413169263       24.1604095893        4.8631303736
  H        46.6623095746       22.2896654820        6.1715088217
  H        47.6294945924       23.5757848124        1.2461444032
  H        14.8714715168        8.5879640706        4.6084943717
  H        50.2868723794       22.7029246914       12.0600250427
  H        49.2687883977       24.5757427726       13.3600985496
  H        45.6098445305       24.1085318657       11.1464558164
  H        46.6520182415       22.2533361673        9.8321755713
  H        47.6075101862       23.5517623325       14.7968119361
  H        40.6300181906       17.0708970187       11.4107328977
  H        48.6869664160       14.0950645044        7.7999851047
  H        10.6810149978       12.4670657872       12.0936629586
  H        11.6889165940       10.5249636782       13.2974018100
  H        15.3924210723       11.1573980114       11.2046774940
  H        14.3641898273       13.0860136531        9.9893538278
  H        13.3754480991       11.6218556236       14.7529640714
  H        47.9299766889       14.2185451437        9.7106681311
  H        47.7798748762       14.3737002781        6.4952283142
  H        49.0817754080       18.5517264115       10.8669311810
  H        10.4155355436       14.1343601653        7.9988288688
  H        24.4734622453        3.0307515896        3.9097535564
  H        25.6025381206        4.8941110817        2.6770753236
  H        23.2185172839        7.7530017164        4.8317839639
  H        22.1086416683        5.8800018222        6.0664001511
  H        23.7904885406        5.7918784720        1.2487508268
  H        36.3595074440       32.1930464219        3.9837757922
  H        35.2108230887       30.3761485066        2.7174055307
  H        37.4663150231       27.4383961359        4.9043243878
  H        38.5949345206       29.2683098537        6.1809146214
  H        36.9775677587       29.4580753917        1.2992888431
  H        25.6965584939        8.6151564778        4.6412316104
  H        36.4498983772       32.2405884539       12.1116460395
  H        35.3363482753       30.4278111752       13.4093630074
  H        37.5418008079       27.4857520498       11.1757699306
  H        38.6292262614       29.3100582623        9.8641762057
  H        37.0159215993       29.4748758811       14.8525849593
  H        46.1085500191       26.5871949999       11.3855249817
  H        44.6680955929       35.1160675045        7.8140386752
  H        24.4421347871        3.0398451082       12.0760151221
  H        25.5750317007        4.8820136231       13.3239418851
  H        23.1623901169        7.7668148663       11.2375383599
  H        22.0415982726        5.9126776606        9.9892446936
  H        23.7817658587        5.7915732762       14.7992619180
  H        44.9533054208       34.3898333381        9.6948114755
  H        44.9015714199       34.2066859082        6.4906785238
  H        40.6656198031       33.2082734010       10.8528983253
  H        23.1501009064        1.9573822704        8.0045141252
  H        25.7737096182       19.6461816848        3.9363710128
  H        23.6095731590       19.7028085286        2.6940038478
  H        22.3048382931       16.2005481874        4.8215527701
  H        24.4756007299       16.1581564635        6.0622450268
  H        23.7038012736       17.6805185792        1.2436930345
  H        35.1253753856       15.4655693883        3.9600603198
  H        37.2594742276       15.4011182691        2.6680934713
  H        38.6931709644       18.7927962147        4.8920539646
  H        36.5596981181       18.8296298637        6.1954535755
  H        37.2188613192       17.3687983441        1.2416360065
  H        20.3227868924       17.9618411118        4.6512182856
  H        35.1521249961       15.4370663510       12.0838450014
  H        37.2894316496       15.3630259522       13.3692534886
  H        38.7188314889       18.7734264169       11.1719941071
  H        36.5780695897       18.8270855096        9.8819016140
  H        37.2289781304       17.3540238584       14.7927287857
  H        35.1628412390       26.6746454966       11.4081959240
  H        28.4929141203       21.0748165678        7.8801908377
  H        25.7537227481       19.6503789943       12.1438625304
  H        23.5672728274       19.7129372416       13.3583637311
  H        22.3004058917       16.1912983525       11.2403586683
  H        24.4885274913       16.1476494992       10.0258314526
  H        23.6936320703       17.6785750013       14.7930162162
  H        29.0263837791       21.7114455324        9.7271228694
  H        29.2205229323       21.6826529213        6.5662722790
  H        32.0832089183       18.5610048846       10.9206846133
  H        27.3667526260       19.0170239268        8.0812475548
  H        14.8530013987       19.6710290846       12.1092326678
  H        17.0209341022       19.7287798268       13.3460633474
  H        18.3042807815       16.2006393447       11.2478065106
  H        16.1326817242       16.1591104106       10.0100201283
  H        16.9121708580       17.7260000035       14.8143989947
  H        46.0859435680       15.4293358193       12.0553397156
  H        43.9588805716       15.3591524029       13.3564391385
  H        42.5392191542       18.7995197856       11.1996080361
  H        44.6665186608       18.8442897113        9.8871842373
  H        44.0134139634       17.2993820708       14.8212061090
  H        20.2971016608       17.9482399890       11.4053999776
  H        46.0415271016       15.3847179340        4.0337455481
  H        43.9123369821       15.3176916573        2.7373044243
  H        42.5182666750       18.7882257374        4.8613594000
  H        44.6534902713       18.8408017003        6.1599562164
  H        44.0031011757       17.2877081953        1.2700422699
  H        46.1984511179       26.6822541104        4.6233022022
  H        52.7410719311       21.0625838100        8.1946003997
  H        14.8646857019       19.6781116323        3.9055690780
  H        17.0597229990       19.7527422902        2.7109149082
  H        18.3113619676       16.2084773780        4.8006320214
  H        16.1188445622       16.1584626336        6.0059353035
  H        16.9215723234       17.7302891368        1.2629362165
  H        52.3219952461       21.6734618151        6.2948119614
  H        52.0131495194       21.7022507044        9.4954563536
  H        49.0669102703       18.6078393062        5.2044517163
  H        13.2470359791       19.0166113778        7.9760030239
  H        29.9609230793       12.4338001230       12.2140375181
  H        28.8892411676       10.5039524181       13.3888412779
  H        25.2435707414       11.2151070070       11.2222788972
  H        26.3308587568       13.1372989498       10.0471907518
  H        27.1679819587       11.6675649041       14.7882219600
  H        30.9927479163       22.7797554540       12.0018489394
  H        31.9970321057       24.6574307983       13.3012600964
  H        35.7034243126       24.1222255997       11.1857381987
  H        34.6784226600       22.2510451020        9.8804462598
  H        33.6523074815       23.5839404246       14.7645297313
  H        25.7122957478        8.5937818104       11.3968695314
  H        30.8884868690       22.6867708367        3.9345651324
  H        31.8966411868       24.5629526238        2.6358463474
  H        35.5358283244       24.1550650325        4.8930299426
  H        34.5084531417       22.2880974387        6.1954762795
  H        33.5993793511       23.5751601169        1.2129283942
  H        40.5942312472       17.0784710410        4.6526192311
  H        32.5073983844       14.1562441769        8.2403160869
  H        29.8878858845       12.4782666691        3.9255360495
  H        28.8421936415       10.5847896255        2.6794065993
  H        25.1680287079       11.2114145618        4.8243682288
  H        26.2317563504       13.0985094794        6.0754188419
  H        27.1471446292       11.6854401639        1.2388131334
  H        33.2968982903       14.2195161624        6.4361509879
  H        33.4052294476       14.4124508024        9.5931778460
  H        32.0240284268       18.5064171855        5.0774471958
  H        30.2086903768       14.1468470811        8.0819039498
  H        16.1184962560        2.9627590250       12.1301424268
  H        14.9530019591        4.8196447526       13.3228459698
  H        17.3645851666        7.6856393779       11.2095171662
  H        18.5135980376        5.8182087588       10.0096898928
  H        16.7529102481        5.7391761577       14.7714890218
  H        44.8281252172       32.1400477993       11.9767979524
  H        45.9372765778       30.3410769636       13.3062549527
  H        43.6817170371       27.3780370913       11.1526177523
  H        42.5991724382       29.1898966856        9.8099764263
  H        44.2300521678       29.4366084514       14.7688587019
  H        14.8498703448        8.5454104148       11.3632728298
  H        44.9000324111       32.2338495203        3.9321283451
  H        46.0247842075       30.4127490788        2.6525365387
  H        43.7625556447       27.4839461654        4.8448278693
  H        42.6449006187       29.3175851535        6.1239177023
  H        44.2682334500       29.4703994114        1.2181324278
  H        35.0034243318       26.6327352629        4.6499590466
  H        36.6050957576       35.1338869304        8.1805654763
  H        16.1436313136        3.0126523665        3.9037469475
  H        14.9739247702        4.8559491702        2.6880466571
  H        17.3950254204        7.7470732261        4.7556126062
  H        18.5421421426        5.8931501243        5.9833010524
  H        16.7641823707        5.7552333795        1.2192363396
  H        36.2786692031       34.4820770485        6.2734908282
  H        36.3804693767       34.2090940792        9.4997001609
  H        40.5787286608       33.2013333151        5.1545079232
  H        17.4705414799        1.9469268048        7.9740067608
  H        29.2560432323       19.4436666726       12.5323876484
  H        28.9042136203       19.1684095953        3.6851084821
  H        30.6230771349       15.4824010714        3.7449197021
  H        31.4362573266       15.6870757701       12.5858380646
  H        28.2004447135       17.9514675693       14.4158310591
  H        29.6372107594       15.5052838804       14.4392968482
  H        18.8524066304        0.8686830201       12.3349761892
  H        40.5280761270       35.2289287157        3.9522468134
  H        42.3227384049       34.4175626400        3.5912370674
  H        22.0874543908        0.6918524247       12.3515259820
  H        11.5967674051       18.7127640551       12.3824798682
  H        52.2645703591       18.4310965404        3.6776203247
  H        49.2546698407       16.4768362921        3.5845432075
  H        10.1503650799       15.7982996695       12.2927162528
  H        50.8496309722       17.6926292385        3.9541056567
  H        10.0459513628       17.3947093499       12.0519898713
  H        20.2134305840        0.0018303936       12.0421370745
  H        39.1834886806       36.1241812283        3.6863001644
 Ni        30.2712332318       17.5709249321        2.6658246425
 Ni        30.5229653242       16.4932352084        0.4144382219
 Ni        29.5453623645       18.4316109516        0.3320919763
 Ni        30.1817634644       17.4749649037       13.2431242179
  O        10.6498572024       14.3651679373        5.4857745660
  O        12.6130907397       14.6574263358        6.5838834863
  O        49.1476042682       16.8460014386        7.9897835490
  O        50.3500628794       20.9363212672        5.6483110529
  O        48.3484701379       20.5932490442        6.6660185011
  O        11.0508336729       17.0540788175        6.5006245146
  O        50.3207602115       20.8817011180       10.4068755518
  O        48.3466209015       20.5866980814        9.3270815541
  O        49.5432471544       18.2484220604       10.0683976783
  O        12.3587321198       18.6246534033        7.9997626208
  O        48.6931315578       14.1486455307        6.7512642399
  O         8.2098007694       14.2104425127        9.3225585277