     558
 i =      113, E =     -4001.9733754838
  C        11.8589510472       14.0536357657        5.7414179836
  C        12.4565205217       12.8907194884        5.0231505213
  C        11.7048028986       12.1718024199        4.0815152682
  C        12.2811683002       11.1095669158        3.3892145165
  C        13.6217010747       10.7397440680        3.6170614554
  C        14.3548818824       11.4432984663        4.5905164306
  C        13.7820243593       12.5083297456        5.2819459102
  C        14.2612178007        9.6490313105        2.8437870687
  C        14.2568373088        9.6570007330        1.4221030875
  C        13.7438627387       10.7591678559        0.6681290763
  C        49.1259756781       21.2316209338        5.8812394219
  C        48.5490171636       22.3994957131        5.1536682330
  C        49.2986099858       23.0661741836        4.1718947033
  C        48.7315409457       24.1050994522        3.4384178866
  C        47.4012652486       24.5073419800        3.6675473032
  C        46.6707028736       23.8590150261        4.6817136962
  C        47.2332870681       22.8142747608        5.4112639433
  C        46.7709609906       25.5851467294        2.8703088188
  C        46.7590487566       25.5552923621        1.4485190604
  C        47.2580944810       24.4398799364        0.7049054657
  C        14.8608572558        8.5706454563        0.7089565317
  C        14.8917051213        8.5969967416        3.5205351773
  C        49.1087215060       21.2006137647       10.1459994731
  C        48.5221559817       22.3617238002       10.8723718407
  C        49.2614925015       23.0227832647       11.8651117185
  C        48.6851898057       24.0571736061       12.5966796839
  C        47.3545990152       24.4536765400       12.3588381738
  C        46.6340855888       23.8085679346       11.3354924581
  C        47.2076458295       22.7727018680       10.6035110533
  C        46.7166086744       25.5288072466       13.1500705673
  C        46.7293261344       25.5254549596       14.5718048392
  C        47.2448289543       24.4262249456       15.3281353800
  C        40.6252105238       16.9676167766       15.3017789525
  C        40.6361879899       16.9862533136       12.4923082378
  C        11.8844327677       14.0858778991       10.2852227659
  C        12.4736873665       12.9102575684       10.9894080863
  C        11.7160761982       12.1771641280       11.9155320852
  C        12.2826820711       11.0948796381       12.5841545343
  C        13.6215587944       10.7212850773       12.3524991101
  C        14.3595818681       11.4366877487       11.3916029884
  C        13.7941648903       12.5177121809       10.7186971302
  C        14.2550746950        9.6246489250       13.1230810121
  C        14.2535716066        9.6446884929       14.5449117530
  C        13.7435929132       10.7536668616       15.2918732863
  C        22.5117705897        3.2446884201        5.7529882309
  C        23.2263438065        4.3499985749        5.0528325945
  C        24.2238946125        4.0692527082        4.1074656854
  C        24.8512863568        5.1081689683        3.4248394165
  C        24.4967895771        6.4502222442        3.6671129656
  C        23.5272322557        6.7225997604        4.6494054628
  C        22.8953419534        5.6853985445        5.3306445496
  C        25.1039439103        7.5553066978        2.8904317161
  C        25.0798288562        7.5452326913        1.4688204526
  C        24.3761535262        6.5461385748        0.7238891287
  C        38.2986914773       31.9292321954        5.8515075394
  C        37.5580848696       30.8424868048        5.1480400003
  C        36.5925472139       31.1527053557        4.1778516541
  C        35.9618321577       30.1370960395        3.4647844733
  C        36.2815837814       28.7853215828        3.6988298845
  C        37.2171747589       28.4824554188        4.7061582695
  C        37.8517735285       29.4970807883        5.4188411589
  C        35.6678161311       27.6995146238        2.9005963679
  C        35.7011438065       27.7161080594        1.4789596721
  C        36.4142564323       28.7154068078        0.7444353879
  C        25.7069904722        8.6119270375        0.7475335181
  C        25.6994465165        8.6320201799        3.5596658991
  C        38.3291908247       31.9611534437       10.1592222247
  C        37.6084147780       30.8900435260       10.9067084293
  C        36.6755960710       31.2032717605       11.9075926958
  C        36.0610623592       30.1888659281       12.6395670594
  C        36.3641126271       28.8341827371       12.3953612775
  C        37.2774047866       28.5308930711       11.3666973749
  C        37.8938805732       29.5419375263       10.6356735235
  C        35.7453005824       27.7388156907       13.1781996921
  C        35.7406522872       27.7361822493       14.6008133279
  C        36.4319775912       28.7258745813       15.3677849939
  C        46.1323332015       26.6185611187       15.2821014427
  C        46.0828394823       26.5773985574       12.4741895523
  C        22.4603768964        3.2546408991       10.2568626012
  C        23.1547672526        4.3623288398       10.9797840070
  C        24.1586984027        4.0744102660       11.9178816027
  C        24.7875390384        5.1034477136       12.6141948293
  C        24.4320304152        6.4491103765       12.3943006396
  C        23.4509351269        6.7304138692       11.4248787166
  C        22.8174562653        5.7015777972       10.7290613335
  C        25.0650495925        7.5457068112       13.1675029550
  C        25.0607098717        7.5393635295       14.5899974590
  C        24.3651289530        6.5444633337       15.3471164861
  C        26.6139826531       17.8630879646        5.7847723956
  C        25.3035226677       17.9173141556        5.0682336349
  C        25.0373703887       18.9311063402        4.1338316698
  C        23.8266676126       18.9545099162        3.4441337199
  C        22.8443046678       17.9684290615        3.6671481132
  C        23.1046220306       16.9788800415        4.6344244020
  C        24.3175204218       16.9497328753        5.3216847018
  C        21.5739702485       17.9579774715        2.8970659544
  C        21.5783773896       17.9533731235        1.4739934928
  C        22.7870612921       17.8506791255        0.7154183635
  C        34.4526851380       17.2050123947        5.9132202427
  C        35.7400661712       17.1054604353        5.1677413258
  C        35.9225945498       16.1248823852        4.1805389372
  C        37.1035021894       16.0810501762        3.4436323985
  C        38.1310184675       17.0174347996        3.6715268588
  C        37.9509693242       17.9760936195        4.6870215563
  C        36.7706197273       18.0235070674        5.4229995037
  C        39.3819214382       17.0092391479        2.8800934739
  C        39.3737345078       17.0048363733        1.4580686035
  C        38.1648394962       17.1197645670        0.7022723151
  C        20.3332545863       17.9670532087        0.7621943078
  C        20.3474896826       17.9473569310        3.5761393940
  C        34.4474971275       17.2300189296       10.1824688242
  C        35.7500781939       17.1068318265       10.8977634510
  C        35.9402780955       16.1128877925       11.8698643204
  C        37.1296364846       16.0553302822       12.5917431518
  C        38.1574832338       16.9908796909       12.3634281467
  C        37.9735331147       17.9573703377       11.3562727418
  C        36.7838259770       18.0193459318       10.6361260486
  C        39.4058849238       16.9819427004       13.1590552516
  C        39.3859169362       16.9912024802       14.5808558500
  C        38.1707866145       17.1138072049       15.3255671136
  C        35.0987621176       26.6616566579       15.3025469771
  C        35.1581108097       26.6674964963       12.4928717855
  C        26.5876473668       17.8048393210       10.3316257496
  C        25.2730366501       17.8718847547       11.0354018818
  C        25.0016370133       18.9045233809       11.9458572659
  C        23.7817216738       18.9447121033       12.6166786985
  C        22.8038442395       17.9534348880       12.4002484196
  C        23.0687727311       16.9464428367       11.4541973847
  C        24.2882580206       16.9041088841       10.7814801960
  C        21.5381414199       17.9456781792       13.1722788350
  C        21.5598059948       17.9467158282       14.5941041020
  C        22.7780374553       17.8476784786       15.3387167661
  C        14.0485127827       17.8309896375       10.2872930604
  C        15.3555258598       17.8939945634       11.0090827688
  C        15.6113508814       18.9014368036       11.9525935084
  C        16.8217261023       18.9290132977       12.6430432566
  C        17.8118025228       17.9522066975       12.4127487281
  C        17.5609510844       16.9692221549       11.4365714621
  C        16.3498001505       16.9371095740       10.7475721293
  C        19.0812618794       17.9426029949       13.1826449631
  C        19.0779200896       17.9428382091       14.6054267769
  C        17.8698779647       17.8370012594       15.3642326138
  C        46.8052048532       17.1459981975       10.1548965922
  C        45.5129620421       17.0483184712       10.8932632278
  C        45.3200883588       16.0650521965       11.8757293975
  C        44.1348980335       16.0242747885       12.6062069425
  C        43.1137787388       16.9674064209       12.3775286232
  C        43.3031751014       17.9273512355       11.3649554087
  C        44.4875065234       17.9711338522       10.6349733946
  C        41.8618599976       16.9693381497       13.1681564021
  C        41.8705247968       16.9762533126       14.5901834908
  C        43.0808732722       17.0810186711       15.3452372515
  C        20.3232126209       17.9626471930       15.3167086874
  C        20.3073330120       17.9245216123       12.5032179178
  C        46.7844305535       17.2294190553        5.8870049747
  C        45.4848067809       17.1112138952        5.1660513404
  C        45.2785040295       16.0959046297        4.2190715679
  C        44.0939597688       16.0453685172        3.4886972451
  C        43.0843837947       17.0072329025        3.6866798352
  C        43.2823680077       17.9950378003        4.6700986293
  C        44.4682517053       18.0513459959        5.3967031413
  C        41.8371781922       16.9999643495        2.8893363156
  C        41.8582073031       16.9904869740        1.4678433563
  C        43.0749866414       17.0870284161        0.7221702125
  C        46.1510390323       26.6352831966        0.7268809063
  C        46.1617584087       26.6546719660        3.5365391362
  C        14.0447439245       17.8314355313        5.7073021954
  C        15.3642515987       17.9053584080        5.0133428001
  C        15.6357846594       18.9232869171        4.0868954399
  C        16.8635969800       18.9630449018        3.4299945520
  C        17.8479842056       17.9840847987        3.6735700892
  C        17.5825821049       16.9937536388        4.6369076856
  C        16.3567301082       16.9535982446        5.2974808422
  C        19.1165622728       17.9669283324        2.9063047072
  C        19.0964594536       17.9539976010        1.4845054998
  C        17.8789409740       17.8420094985        0.7405535296
  C        28.8082487989       14.0857671842       10.3881851025
  C        28.1993259746       12.9059850477       11.0669342605
  C        28.9317096997       12.1485894389       11.9932054879
  C        28.3328224859       11.0748974560       12.6471092450
  C        26.9885354325       10.7337631062       12.3969174359
  C        26.2783282664       11.4682943754       11.4303264563
  C        26.8744478805       12.5431039838       10.7757631702
  C        26.3211289660        9.6550427559       13.1613882664
  C        26.3154215832        9.6799661689       14.5823762582
  C        26.8283966942       10.7896079593       15.3259959016
  C        32.1793881348       21.2425939995       10.1455373700
  C        32.7646826974       22.4119075923       10.8643006847
  C        32.0076865249       23.0941504658       11.8297716065
  C        32.5718290527       24.1365630693       12.5590102234
  C        33.9086384710       24.5252440176       12.3454640378
  C        34.6476476456       23.8622919784       11.3470466875
  C        34.0862075934       22.8150302972       10.6189167082
  C        34.5316490758       25.6022213738       13.1495496697
  C        34.5081748532       25.5787397039       14.5717212591
  C        33.9873591423       24.4685821430       15.3088359713
  C        25.7021768414        8.6051377204       15.3028548507
  C        25.6792846118        8.6070953731       12.4895183863
  C        32.0817858562       21.2113108896        5.8791313845
  C        32.6482792117       22.3807622482        5.1451959041
  C        31.9082729055       23.0316822682        4.1459155947
  C        32.4773052045       24.0713717941        3.4127575649
  C        33.8004776832       24.4891873026        3.6579249082
  C        34.5209533231       23.8531897315        4.6876526459
  C        33.9569819253       22.8103013028        5.4171628716
  C        34.4386238772       25.5724574009        2.8730966537
  C        34.4593690695       25.5642354037        1.4504211767
  C        33.9627575816       24.4621309576        0.6856569313
  C        40.6188627606       16.9747807877        0.7469042465
  C        40.6075048380       17.0234564203        3.5562812088
  C        28.7247308505       14.0928871870        5.7859110070
  C        28.1216461690       12.9390265453        5.0570300138
  C        28.8654505740       12.2289466681        4.1018407803
  C        28.2891989776       11.1652828085        3.4117944962
  C        26.9533518734       10.7853724377        3.6511338385
  C        26.2275362899       11.4807645935        4.6365633341
  C        26.8022424283       12.5440539468        5.3296916363
  C        26.3154454643        9.6911393743        2.8805896681
  C        26.3132402829        9.6991712643        1.4586095716
  C        26.8241931855       10.8002768018        0.7020011936
  C        18.1354862468        3.1807986918       10.3171923114
  C        17.4064380638        4.2780811593       11.0160151052
  C        16.3909202163        3.9997609666       11.9437483931
  C        15.7434062342        5.0397768429       12.6073829919
  C        16.0953761077        6.3834509449       12.3675958846
  C        17.0845282794        6.6529389106       11.4035937099
  C        17.7333919449        5.6155654675       10.7384030468
  C        15.4712316521        7.4912158240       13.1306023342
  C        15.4863522723        7.4905759472       14.5522957120
  C        16.1877018731        6.4968990344       15.3055645338
  C        42.9455412955       31.8592633516       10.0730292220
  C        43.6450898432       30.7712530058       10.8172427983
  C        44.5906660385       31.0918394682       11.8035194993
  C        45.1954466430       30.0858069627       12.5513110974
  C        44.8680119138       28.7329560980       12.3364641297
  C        43.9420826708       28.4193601405       11.3231011807
  C        43.3342440835       29.4249697288       10.5749027449
  C        45.4848564734       27.6531432651       13.1396068441
  C        45.4898318274       27.6789410329       14.5613131309
  C        44.8036684673       28.6874354502       15.3081745879
  C        14.8573796049        8.5631296151       15.2645455366
  C        14.8762008121        8.5630290695       12.4518945952
  C        42.9464934303       31.9613742617        5.8090451071
  C        43.6918178430       30.8850615239        5.0959147486
  C        44.6564211519       31.1905907351        4.1234778905
  C        45.2778007761       30.1707298520        3.4059832618
  C        44.9539041270       28.8204755993        3.6439304822
  C        44.0205050590       28.5231985016        4.6549053846
  C        43.3923735650       29.5402256204        5.3668552302
  C        45.5624326636       27.7227749214        2.8586223467
  C        45.5319594421       27.7158526957        1.4373233351
  C        44.8256320655       28.7062242938        0.6845593578
  C        35.0761646180       26.6528924927        0.7480994938
  C        35.0544853046       26.6274391941        3.5584522474
  C        18.1485239687        3.2469003091        5.7066691153
  C        17.4297887796        4.3437481515        4.9975674586
  C        16.4145826494        4.0524729614        4.0740064244
  C        15.7662361134        5.0831331877        3.3987039710
  C        16.1209009696        6.4283380069        3.6215357890
  C        17.1122146256        6.7117186882        4.5788425852
  C        17.7599164952        5.6827900213        5.2585260221
  C        15.4905881919        7.5240556577        2.8490479133
  C        15.4968158542        7.5074685750        1.4279350097
  C        16.1936566997        6.5057207916        0.6813735640
  H        10.6726731846       12.4659650243        3.9045446105
  H        11.6948826736       10.5510359976        2.6627103323
  H        15.3918779916       11.1686044393        4.7722917133
  H        14.3514374091       13.0715946890        6.0173912822
  H        13.3767067010       11.6312618918        1.2013902564
  H        50.3211367044       22.7458159580        3.9867352970
  H        49.3178100238       24.6197962693        2.6802819660
  H        45.6413664004       24.1600646563        4.8653315779
  H        46.6624567638       22.2895403139        6.1738427257
  H        47.6266514171       23.5734731989        1.2465438108
  H        14.8717793988        8.5882036116        4.6088339878
  H        50.2816498915       22.7001896002       12.0597886219
  H        49.2636886745       24.5727596976       13.3600130486
  H        45.6045790173       24.1055657084       11.1465981699
  H        46.6464960931       22.2506999326        9.8320855858
  H        47.6028241673       23.5487691425       14.7972599242
  H        40.6399135011       16.9543504068       11.4044486167
  H        48.6896521507       14.0923544626        7.8019210412
  H        10.6825305942       12.4661036711       12.0927008668
  H        11.6908745776       10.5244783599       13.2968309365
  H        15.3950397893       11.1588055080       11.2058183601
  H        14.3664963204       13.0870896492        9.9901564417
  H        13.3768670956       11.6222773877       14.7531502571
  H        47.9385666830       14.2124621367        9.7103481344
  H        47.7797671191       14.3728432924        6.4972576530
  H        49.0807104409       18.5465610200       10.8700065838
  H        10.4172211627       14.1333580365        7.9958944787
  H        24.4852222653        3.0305108023        3.9179767535
  H        25.6250855075        4.8900199616        2.6919892589
  H        23.2457231671        7.7556379099        4.8428238688
  H        22.1246272517        5.8863442237        6.0707714609
  H        23.8131132272        5.7913876807        1.2650928373
  H        36.3612438657       32.1974934838        3.9845176879
  H        35.2134609134       30.3819798038        2.7142450143
  H        37.4718288665       27.4415453548        4.8947022273
  H        38.5993605831       29.2701317032        6.1752931069
  H        36.9795033510       29.4633497860        1.2927607630
  H        25.7299328222        8.6189021996        4.6476846478
  H        36.4515947299       32.2484489458       12.1086998856
  H        35.3313717668       30.4390219432       13.4065357776
  H        37.5252723863       27.4896919529       11.1710981926
  H        38.6196883718       29.3109357360        9.8597029020
  H        37.0117488374       29.4814896782       14.8454862340
  H        46.1036256029       26.5845616909       11.3861403108
  H        44.6681255810       35.1160656526        7.8140383860
  H        24.4366569876        3.0358508617       12.0824730087
  H        25.5699914464        4.8742777426       13.3344802713
  H        23.1655444404        7.7652592359       11.2470434682
  H        22.0440338184        5.9147718705        9.9948042710
  H        23.7930225881        5.7890055427       14.8163528056
  H        44.9535215981       34.3899982414        9.6948680370
  H        44.9015275463       34.2067038178        6.4906200457
  H        40.6658489155       33.2088194319       10.8529630885
  H        23.1504236583        1.9575124353        8.0050048453
  H        25.7912675095       19.6960954174        3.9623674449
  H        23.6267888230       19.7461568545        2.7251100979
  H        22.3575643374       16.2090270970        4.8168138191
  H        24.5287797397       16.1713471405        6.0512851212
  H        23.7287762057       17.7417374080        1.2455466833
  H        35.1222942582       15.4120663763        3.9957969227
  H        37.2436937777       15.3134834825        2.6857056241
  H        38.7357130521       18.7077583179        4.8675431058
  H        36.6157987419       18.7791374861        6.1893850783
  H        37.2262833248       17.2491634103        1.2335002088
  H        20.3513155399       17.9758576358        4.6643674515
  H        35.1367672707       15.4052998804       12.0605856993
  H        37.2736838508       15.2821178399       13.3432045900
  H        38.7604795815       18.6862205370       11.1738018356
  H        36.6228702810       18.7842023746        9.8801323621
  H        37.2366996323       17.2382800631       14.7854526845
  H        35.1423504016       26.6896278792       11.4048390535
  H        28.5003434161       21.0947491767        7.8785435384
  H        25.7572230642       19.6697440662       12.1095676695
  H        23.5721425262       19.7488754166       13.3188028469
  H        22.3219274732       16.1744582355       11.2804592603
  H        24.5072005536       16.1150762882       10.0659924789
  H        23.7129214268       17.7366208880       14.7974157095
  H        28.9680989464       21.7282662719        9.7741802231
  H        29.1764271807       21.7300605022        6.5530046377
  H        32.2065915444       18.6031599937       10.8741281798
  H        27.4050561176       19.0830686946        8.0953003862
  H        14.8507518597       19.6585119947       12.1300143009
  H        17.0150850358       19.7165369181       13.3682937959
  H        18.3141399200       16.2066969001       11.2488024843
  H        16.1455846653       16.1645206573       10.0100201897
  H        16.9290468141       17.7177604101       14.8348334333
  H        46.1156366213       15.3474103183       12.0623596520
  H        43.9869324351       15.2548224318       13.3607731335
  H        42.5228885176       18.6634325580       11.1829724337
  H        44.6498661834       18.7279463670        9.8712791098
  H        44.0210977792       17.1914673946       14.8127235472
  H        20.3034869260       17.9461116706       11.4148561486
  H        46.0623569959       15.3594912173        4.0578589394
  H        43.9376100960       15.2556265181        2.7570744341
  H        42.5086767323       18.7432643515        4.8293767935
  H        44.6397571677       18.8320015844        6.1339193056
  H        44.0107407727       17.2015580806        1.2616042907
  H        46.1991431910       26.6813648399        4.6239648111
  H        52.7406220437       21.0625764268        8.1946918211
  H        14.8748708269       19.6775653768        3.8988781695
  H        17.0733547152       19.7562184456        2.7155744169
  H        18.3335165187       16.2310097540        4.8324477462
  H        16.1371222739       16.1766813074        6.0257865402
  H        16.9448543389       17.7266639191        1.2821229422
  H        52.3220233048       21.6729171319        6.2944205286
  H        52.0135683394       21.7027538410        9.4956645313
  H        49.0645763485       18.6089715135        5.2079818467
  H        13.2462644925       19.0184332444        7.9762018384
  H        29.9678012937       12.4163593971       12.1875764178
  H        28.9010224105       10.4881008102       13.3656358204
  H        25.2398870719       11.2130902202       11.2293415544
  H        26.3234302082       13.1328293049       10.0472663460
  H        27.1985791200       11.6549628338       14.7844460402
  H        30.9812881963       22.7816022097       12.0058455392
  H        31.9792442101       24.6634963130       13.3036471695
  H        35.6822614529       24.1523129508       11.1756135239
  H        34.6636899035       22.2787804776        9.8693922313
  H        33.6323435726       23.5993006349       14.7627655767
  H        25.7040062041        8.5890089581       11.4013760981
  H        30.8926398945       22.6984919616        3.9446120414
  H        31.8960687328       24.5747734941        2.6432618667
  H        35.5450858038       24.1634278050        4.8843884751
  H        34.5218142225       22.2972622497        6.1918860517
  H        33.5888316477       23.5877729069        1.2107881826
  H        40.6034911640       17.0030338050        4.6444078775
  H        32.5208326276       14.1428004170        8.2661560908
  H        29.8978616263       12.5190637697        3.9202963990
  H        28.8734561491       10.6105927183        2.6807754784
  H        25.1942498190       11.1991078731        4.8286932971
  H        26.2386279910       13.0960720621        6.0781450326
  H        27.1893591448       11.6747186423        1.2324727204
  H        33.2912426766       14.1805823921        6.4250185956
  H        33.4082180059       14.3901865805        9.6151696496
  H        32.1547253648       18.5388986629        5.1903166448
  H        30.2299624580       14.1828874496        8.0707296206
  H        16.1188355078        2.9632645281       12.1301680999
  H        14.9540478722        4.8204605105       13.3231599550
  H        17.3669148638        7.6858086360       11.2103951743
  H        18.5152142587        5.8181069552       10.0102947711
  H        16.7542619621        5.7395012506       14.7721510407
  H        44.8277630208       32.1387333648       11.9777486900
  H        45.9353908102       30.3390118205       13.3073585529
  H        43.6784818411       27.3775210936       11.1529707312
  H        42.5975866452       29.1901217326        9.8101272828
  H        44.2283361287       29.4353678245       14.7700775809
  H        14.8524965341        8.5461964347       11.3636759614
  H        44.9000471185       32.2331908570        3.9316840463
  H        46.0246159769       30.4117087972        2.6525788197
  H        43.7633560737       27.4835663204        4.8467562852
  H        42.6458806267       29.3176097493        6.1253628214
  H        44.2676571978       29.4693935341        1.2192907378
  H        35.0116873446       26.6386889904        4.6459344884
  H        36.6050557269       35.1340434194        8.1805620281
  H        16.1435493772        3.0128864218        3.9042395082
  H        14.9739035123        4.8563345651        2.6886127294
  H        17.3956223157        7.7471959930        4.7558153022
  H        18.5427487569        5.8931519011        5.9833589458
  H        16.7648852688        5.7554060472        1.2199188304
  H        36.2785745985       34.4823862728        6.2733801334
  H        36.3806813969       34.2091546301        9.4996099211
  H        40.5791918057       33.2016124065        5.1540772986
  H        17.4707265930        1.9469741200        7.9740740465
  H        28.9083173141       18.5000355566       12.2799286576
  H        29.0679209411       18.6926968730        3.6583200725
  H        30.3960626590       15.7312528966        3.8610328859
  H        30.6732855642       15.8376831963       12.4416034320
  H        18.8521984625        0.8683192721       12.3352685834
  H        40.5279881254       35.2291899166        3.9521602850
  H        42.3236316837       34.4186937203        3.5908970037
  H        22.0874509961        0.6918376413       12.3516074092
  H        11.5977721862       18.7133769208       12.3809783099
  H        52.2655117489       18.4309643779        3.6801983871
  H        49.2554168953       16.4776007493        3.5844272686
  H        10.1500499320       15.7992598217       12.2995926752
  H        50.8501006961       17.6928101443        3.9546564007
  H        10.0472073303       17.3938444431       12.0519760914
  H        20.2132355605        0.0017032711       12.0421900466
  H        39.1836288184       36.1243601636        3.6862788042
  H        30.5493879654       17.3447648355        4.0189161560
  H        30.3639764847       17.7644922887       12.0778106343
  O        10.6501657427       14.3650457497        5.4857121385
  O        12.6133474852       14.6575848041        6.5838409636
  O        49.1490706196       16.8445136380        7.9903097166
  O        50.3499086324       20.9351304717        5.6488854908
  O        48.3481984765       20.5918437250        6.6673995889
  O        11.0515319425       17.0538755641        6.5007991762
  O        50.3169781974       20.8814782149       10.4066354055
  O        48.3427596445       20.5819202808        9.3276286548
  O        49.5403874948       18.2462362925       10.0691677795
  O        12.3586036505       18.6249170121        7.9997682351
  O        48.6936797289       14.1486596949        6.7511805017
  O         8.2156900897       14.2033941836        9.3168549261
  O        10.7366330972       14.5059893381       10.6644031700
  O        12.5723793320       14.5828067385        9.3283412041
  O        22.8449105708        2.0437116286        5.4872016502
  O        21.6054874503        3.5925033701        6.5896056563