     576
 i =       87, E =     -4780.0020693606
  C        11.8588055354       14.0534751877        5.7415300970
  C        12.4562953512       12.8904944316        5.0233148911
  C        11.7047538734       12.1718829396        4.0812904563
  C        12.2811195989       11.1096704646        3.3889473603
  C        13.6215513445       10.7395372118        3.6170067336
  C        14.3545209564       11.4427359662        4.5909066235
  C        13.7816374593       12.5077028495        5.2824257101
  C        14.2611053141        9.6489144743        2.8435883541
  C        14.2564632838        9.6568842051        1.4218862213
  C        13.7433274513       10.7590172878        0.6679676901
  C        49.1268661606       21.2331442656        5.8796200070
  C        48.5502238022       22.4010998438        5.1525250349
  C        49.3002176982       23.0683571072        4.1714569076
  C        48.7333013149       24.1075360705        3.4383034174
  C        47.4028176105       24.5093227072        3.6670434770
  C        46.6719447608       23.8605683261        4.6806954643
  C        47.2343756186       22.8156304521        5.4100002980
  C        46.7725638259       25.5870197844        2.8697921975
  C        46.7614919176       25.5573883454        1.4480335378
  C        47.2613755036       24.4422857044        0.7045190886
  C        14.8604267681        8.5705619534        0.7086155113
  C        14.8918407376        8.5969224673        3.5202261658
  C        49.1132675088       21.2035507376       10.1454786667
  C        48.5279639132       22.3648947152       10.8726335379
  C        49.2671817743       23.0256882955       11.8655073176
  C        48.6908032672       24.0602290726       12.5969415112
  C        47.3603797909       24.4569764310       12.3586830764
  C        46.6399834394       23.8119923190       11.3351956448
  C        47.2135754294       22.7760950406       10.6034455856
  C        46.7218943009       25.5319170629       13.1497019118
  C        46.7336411095       25.5282311718       14.5714005545
  C        47.2490764232       24.4290022019       15.3277588439
  C        40.6366535718       17.1539735319       15.3230335124
  C        40.6534092130       17.1747281333       12.5144457784
  C        11.8829433786       14.0864086943       10.2854562703
  C        12.4722648163       12.9105967463       10.9896441959
  C        11.7148319356       12.1775584326       11.9159591308
  C        12.2814240656       11.0951155416       12.5843908428
  C        13.6201574634       10.7211774713       12.3523595251
  C        14.3580099326       11.4365336292       11.3912974311
  C        13.7925772662       12.5176860809       10.7185904544
  C        14.2538058997        9.6244802125       13.1227970901
  C        14.2525971840        9.6445132772       14.5446342474
  C        13.7427612230       10.7534746907       15.2917135707
  C        22.5134190458        3.2450865272        5.7537602525
  C        23.2307681851        4.3509166633        5.0566863339
  C        24.2303844624        4.0716731616        4.1128965544
  C        24.8592620791        5.1115055505        3.4325872805
  C        24.5045288717        6.4534745036        3.6753982787
  C        23.5335994098        6.7242643593        4.6568806287
  C        22.9002846914        5.6862694377        5.3357851589
  C        25.1082761503        7.5607634389        2.8982110916
  C        25.0758129627        7.5534159317        1.4765639451
  C        24.3758030807        6.5508682183        0.7328063751
  C        38.2978277430       31.9269505685        5.8521734980
  C        37.5566549599       30.8369085950        5.1524912345
  C        36.5907100255       31.1409964442        4.1805339038
  C        35.9621293317       30.1212736037        3.4707892666
  C        36.2836497788       28.7702684393        3.7089163560
  C        37.2181579840       28.4738045046        4.7194145365
  C        37.8506357483       29.4924252749        5.4287199388
  C        35.6774628679       27.6801869350        2.9092592383
  C        35.7169647646       27.6964950512        1.4867027937
  C        36.4264506631       28.6997027745        0.7547163184
  C        25.6912600598        8.6260837919        0.7540855149
  C        25.7057275340        8.6372784786        3.5660648782
  C        38.3304331711       31.9604502594       10.1607922536
  C        37.6145610784       30.8875401100       10.9107140589
  C        36.6836686588       31.1966116150       11.9148247637
  C        36.0750157876       30.1795514985       12.6483711387
  C        36.3813389646       28.8256708817       12.4026140528
  C        37.2929421396       28.5266811238       11.3708921861
  C        37.9036879535       29.5402135564       10.6386721652
  C        35.7680702283       27.7263739536       13.1843985343
  C        35.7629863050       27.7204023114       14.6076583913
  C        36.4471542904       28.7120512412       15.3776343336
  C        46.1356335219       26.6208516062       15.2815554781
  C        46.0878439960       26.5802291050       12.4736665738
  C        22.4600926599        3.2555911909       10.2582659751
  C        23.1524082042        4.3640713883       10.9828745982
  C        24.1533274699        4.0779377443       11.9249218250
  C        24.7797704077        5.1079391380       12.6224906708
  C        24.4254061742        6.4537156044       12.4004037291
  C        23.4473900864        6.7330526558       11.4270069259
  C        22.8162753220        5.7033687264       10.7300573802
  C        25.0548629076        7.5528490349       13.1740770118
  C        25.0488879261        7.5485864384       14.5970011285
  C        24.3609222578        6.5497793545       15.3558941642
  C        26.6357335220       17.8123734844        5.7443321023
  C        25.3330979620       17.8597264069        5.0201544216
  C        25.0525581727       18.8750438066        4.0913147546
  C        23.8336037926       18.8975556146        3.4173313015
  C        22.8561418672       17.9089683961        3.6506202134
  C        23.1318169167       16.9153489878        4.6090271718
  C        24.3527746353       16.8872456761        5.2807556171
  C        21.5791819740       17.9010819525        2.8926030402
  C        21.5801896738       17.8918455759        1.4700678226
  C        22.7858712766       17.7709681358        0.7092060121
  C        34.4812272416       17.2511098303        5.9601393301
  C        35.7644124646       17.1975229594        5.2072926819
  C        35.9711029756       16.2095968403        4.2313814618
  C        37.1406588131       16.2005001698        3.4774635205
  C        38.1386692069       17.1711601373        3.6882017591
  C        37.9369389845       18.1383193018        4.6911426898
  C        36.7610681079       18.1585343047        5.4361072330
  C        39.3887885096       17.1731394817        2.8973294203
  C        39.3812037627       17.1803995592        1.4760996842
  C        38.1732302459       17.3022186474        0.7208138078
  C        20.3332706066       17.9177730298        0.7627670055
  C        20.3555870855       17.9021875418        3.5770414622
  C        34.4790576752       17.2445171582       10.1925685456
  C        35.7789705673       17.1731445004       10.9118074812
  C        35.9851703919       16.2038829780       11.9050665198
  C        37.1710433810       16.1893186063       12.6323532728
  C        38.1775472847       17.1429111641       12.3853661347
  C        37.9774738512       18.0859315108       11.3599091791
  C        36.7895632682       18.1066244443       10.6355115529
  C        39.4231984397       17.1657958552       13.1802926007
  C        39.3988349222       17.1802203002       14.6014840829
  C        38.1817395397       17.3018335578       15.3435727657
  C        35.1274301665       26.6402468460       15.3068696285
  C        35.1850772697       26.6538911614       12.4967927155
  C        26.5717648462       17.8268632593       10.3222536736
  C        25.2567813797       17.8741533090       11.0251034742
  C        24.9959275306       18.8753950290       11.9728741472
  C        23.7782845414       18.9011455724       12.6466270379
  C        22.7926594560       17.9254764367       12.3967206802
  C        23.0478768710       16.9493441155       11.4164888642
  C        24.2662346183       16.9213273741       10.7408487669
  C        21.5297377712       17.9059377875       13.1707900804
  C        21.5543653535       17.8917625515       14.5923767728
  C        22.7731567185       17.7705837689       15.3327176139
  C        14.0466749964       17.8293919539       10.2882650904
  C        15.3515819480       17.8876539008       11.0126791162
  C        15.6082335931       18.8916065815       11.9594452461
  C        16.8175715176       18.9133708868       12.6517362461
  C        17.8042590342       17.9340413498       12.4190445362
  C        17.5524613641       16.9544469002       11.4399257290
  C        16.3425820623       16.9280739052       10.7493656242
  C        19.0735078639       17.9164262786       13.1875935833
  C        19.0727512996       17.9102589888       14.6100264968
  C        17.8658399262       17.8121631127       15.3715400283
  C        46.8063259322       17.2196345135       10.1592355867
  C        45.5181348207       17.1621580854       10.9063328287
  C        45.3123832404       16.1896511727       11.8969538206
  C        44.1321150415       16.1782594872       12.6350756954
  C        43.1287689011       17.1393404786       12.4035991794
  C        43.3317461997       18.0910863688       11.3862024759
  C        44.5126736203       18.1066338258       10.6493848276
  C        41.8772037701       17.1579857260       13.1926435479
  C        41.8833668157       17.1613475676       14.6143331245
  C        43.0929293712       17.2539578093       15.3716408766
  C        20.3197925672       17.9162393380       15.3177340196
  C        20.2973593424       17.8975259269       12.5048601289
  C        46.7882020903       17.2317650520        5.8904076582
  C        45.4859993456       17.1316882429        5.1761071761
  C        45.2645489235       16.1380829510        4.2108768574
  C        44.0774077591       16.1210949926        3.4837978287
  C        43.0845507872       17.0947285626        3.7062513528
  C        43.2957673618       18.0569498234        4.7110438720
  C        44.4838403885       18.0804787520        5.4329528318
  C        41.8404203409       17.1281199485        2.9097692747
  C        41.8648722088       17.1435992926        1.4891937371
  C        43.0843011813       17.2425284093        0.7484570023
  C        46.1534404048       26.6372659157        0.7263124449
  C        46.1625673356       26.6561010430        3.5359531448
  C        14.0455472812       17.8295800310        5.7071434973
  C        15.3665844167       17.8979067028        5.0143155410
  C        15.6474536978       18.9147897132        4.0895576749
  C        16.8774163281       18.9466649847        3.4356846920
  C        17.8545279587       17.9602651523        3.6794756804
  C        17.5799318228       16.9711724371        4.6414227120
  C        16.3524536335       16.9393543282        5.2995205443
  C        19.1224912192       17.9314802507        2.9107532595
  C        19.0986244888       17.9166828548        1.4888082848
  C        17.8782377025       17.8152499466        0.7478552947
  C        28.8086437624       14.0901051996       10.4013361543
  C        28.1925741589       12.9175170281       11.0828755172
  C        28.9077146188       12.1848021161       12.0416756164
  C        28.3053797042       11.1103526405       12.6902566907
  C        26.9737448913       10.7458277813       12.4055634257
  C        26.2813030381       11.4582654413       11.4100652187
  C        26.8814030081       12.5327368429       10.7589260017
  C        26.3015283381        9.6687748677       13.1671074019
  C        26.2852149666        9.6999404819       14.5880879456
  C        26.7776109818       10.8198226852       15.3305582590
  C        32.1806431346       21.2413807821       10.1464922398
  C        32.7782434735       22.4038914853       10.8652902669
  C        32.0332167363       23.0758438163       11.8471603669
  C        32.6043492972       24.1143069505       12.5759319747
  C        33.9367453357       24.5098867183       12.3464337390
  C        34.6640366007       23.8559742418       11.3334913293
  C        34.0955534949       22.8120443429       10.6056806173
  C        34.5641963451       25.5836901078       13.1507776954
  C        34.5448879778       25.5547951149       14.5733696438
  C        34.0355440925       24.4377655432       15.3073164560
  C        25.6822320734        8.6199583342       15.3092141119
  C        25.6684764826        8.6146662695       12.4957858035
  C        32.0800467391       21.1930710535        5.8768500421
  C        32.6452356425       22.3555187826        5.1359786514
  C        31.9211820115       22.9943951148        4.1162780822
  C        32.4982634538       24.0313173047        3.3855650211
  C        33.8131396487       24.4636311493        3.6539878933
  C        34.5166081522       23.8395024778        4.7033920349
  C        33.9467330357       22.7973712584        5.4280070129
  C        34.4573156596       25.5467263961        2.8749267144
  C        34.4883270951       25.5365969647        1.4517612002
  C        34.0074307356       24.4298348057        0.6844092655
  C        40.6271552910       17.1494565792        0.7668906533
  C        40.6114127145       17.1640777227        3.5764006233
  C        28.7393034915       14.0716312128        5.8275558803
  C        28.1247260744       12.9347893141        5.0816895650
  C        28.8509506948       12.2652784058        4.0842782977
  C        28.2709807762       11.2093163720        3.3849918275
  C        26.9501229904       10.7967990196        3.6562901391
  C        26.2420732391       11.4572069687        4.6783302160
  C        26.8194836556       12.5131735947        5.3803931545
  C        26.3094716408        9.7038150506        2.8862067771
  C        26.2910505882        9.7177562963        1.4642039146
  C        26.7775249505       10.8290544158        0.7064595873
  C        18.1354457101        3.1808255414       10.3170959446
  C        17.4061878591        4.2781259935       11.0157962906
  C        16.3903021841        3.9997906277       11.9431210470
  C        15.7425794136        5.0397867306       12.6066149667
  C        16.0946874166        6.3834757842       12.3670984546
  C        17.0842687088        6.6529873978       11.4035475121
  C        17.7333441381        5.6156240344       10.7384994291
  C        15.4703323944        7.4911909534       13.1301156087
  C        15.4856369448        7.4905454336       14.5518267846
  C        16.1872105026        6.4969362961       15.3049883111
  C        42.9458692429       31.8595158070       10.0727538735
  C        43.6461819856       30.7718324833       10.8168075158
  C        44.5917091563       31.0931807776       11.8028683918
  C        45.1973869649       30.0876525114       12.5505884689
  C        44.8709513891       28.7345882888       12.3357673370
  C        43.9450479871       28.4202261913       11.3226331037
  C        43.3362580204       29.4253519894       10.5745425919
  C        45.4885731704       27.6553049115       13.1389609025
  C        45.4928274686       27.6809386205       14.5606584289
  C        44.8057131907       28.6889468005       15.3073083857
  C        14.8566504869        8.5630302106       15.2641828341
  C        14.8749909007        8.5629142320       12.4515196889
  C        42.9463677625       31.9615435901        5.8090216745
  C        43.6916508813       30.8853904956        5.0955600448
  C        44.6563328041       31.1913232069        4.1233597754
  C        45.2779195923       30.1717576222        3.4056523994
  C        44.9541065434       28.8214387067        3.6432066250
  C        44.0204832638       28.5237455221        4.6538429093
  C        43.3921489827       29.5404931982        5.3659965798
  C        45.5631745419       27.7240621587        2.8579319516
  C        45.5334503746       27.7173931546        1.4366302852
  C        44.8270362909       28.7075794562        0.6837028842
  C        35.1012913689       26.6296756266        0.7526500331
  C        35.0657605189       26.6048324896        3.5636633854
  C        18.1486147639        3.2467971899        5.7066291704
  C        17.4300177970        4.3436779819        4.9972926862
  C        16.4147294555        4.0524402409        4.0738119636
  C        15.7664344044        5.0830888103        3.3984156961
  C        16.1212117573        6.4283006975        3.6210576808
  C        17.1126993974        6.7116530643        4.5782019501
  C        17.7603607106        5.6827232150        5.2579630422
  C        15.4907277779        7.5240315333        2.8486313865
  C        15.4966538158        7.5074548305        1.4274948882
  C        16.1934333596        6.5057586062        0.6808023960
  H        10.6727266233       12.4662302907        3.9040271159
  H        11.6949175125       10.5514108534        2.6621680279
  H        15.3914037182       11.1678015259        4.7729737940
  H        14.3509231819       13.0705714996        6.0182695915
  H        13.3763146304       11.6311509921        1.2012575669
  H        50.3228734341       22.7482161961        3.9866071728
  H        49.3197212589       24.6227089505        2.6806137694
  H        45.6424973633       24.1614324902        4.8639638475
  H        46.6634102163       22.2905019429        6.1722037939
  H        47.6298369645       23.5758587125        1.2461746955
  H        14.8721295676        8.5880960638        4.6085319138
  H        50.2872342235       22.7028717250       12.0604287234
  H        49.2691555014       24.5757410788       13.3604354442
  H        45.6105667521       24.1091957175       11.1461417335
  H        46.6527344954       22.2538637413        9.8319471430
  H        47.6077450609       23.5518425797       14.7968549968
  H        40.6586211989       17.1376029119       11.4267933332
  H        48.6870677280       14.0948325081        7.8000308500
  H        10.6814117801       12.4667320420       12.0935006336
  H        11.6896741258       10.5248154885       13.2971985122
  H        15.3933627634       11.1584737018       11.2051810626
  H        14.3648477557       13.0869025305        9.9898901241
  H        13.3759224054       11.6220822332       14.7530764034
  H        47.9301606089       14.2182666260        9.7108561927
  H        47.7801460196       14.3735320220        6.4951604814
  H        49.0839503371       18.5525544180       10.8675417725
  H        10.4162388961       14.1342312204        7.9988495793
  H        24.4920829294        3.0332302306        3.9221977006
  H        25.6340168535        4.8938607204        2.7005736892
  H        23.2518090787        7.7570612868        4.8511716903
  H        22.1284408282        5.8867880559        6.0748592639
  H        23.8193685623        5.7918937678        1.2749435668
  H        36.3574732313       32.1845269690        3.9824607157
  H        35.2145571716       30.3628390224        2.7183614602
  H        37.4752968032       27.4342976281        4.9123891667
  H        38.5978815518       29.2690056429        6.1865878451
  H        36.9861752947       29.4504713813        1.3047804233
  H        25.7468822143        8.6190641781        4.6536663512
  H        36.4562631407       32.2408330348       12.1172465337
  H        35.3467183967       30.4271809698       13.4174870666
  H        37.5442034314       27.4865508676       11.1739455150
  H        38.6282360133       29.3119404762        9.8607274505
  H        37.0237016649       29.4719399782       14.8578908961
  H        46.1091971442       26.5876328897       11.3856295122
  H        44.6682499253       35.1161689707        7.8139416215
  H        24.4313540225        3.0397394244       12.0917806160
  H        25.5600435335        4.8790380949       13.3452237752
  H        23.1623466935        7.7675794076       11.2467388626
  H        22.0454625332        5.9162243229        9.9929510201
  H        23.7923351562        5.7905707072       14.8266780964
  H        44.9537967593       34.3904002434        9.6951605393
  H        44.9016077682       34.2067420184        6.4906342030
  H        40.6658845429       33.2089366074       10.8530959487
  H        23.1504372632        1.9578637148        8.0055627193
  H        25.7923095101       19.6523461338        3.9153982622
  H        23.6225307605       19.6905138130        2.7030994888
  H        22.3895536551       16.1423371277        4.7973878531
  H        24.5747878826       16.1072068813        6.0053427376
  H        23.7278839654       17.6447545165        1.2351267608
  H        35.2024420259       15.4567025256        4.0732047963
  H        37.2989767152       15.4312416601        2.7247866767
  H        38.7014102236       18.8947777404        4.8558555047
  H        36.5862796178       18.9210077124        6.1915268458
  H        37.2335289478       17.4271994247        1.2515841440
  H        20.3632989947       17.9331710386        4.6652257163
  H        35.1970494268       15.4821326255       12.1059872188
  H        37.3307932452       15.4362442126       13.4007507544
  H        38.7494171465       18.8277651577       11.1662535059
  H        36.6125462872       18.8530773999        9.8649399062
  H        37.2481922305       17.4273162274       14.8025087277
  H        35.1665854796       26.6800579725       11.4088787864
  H        28.5101376475       21.0822220763        7.9782467943
  H        25.7610552652       19.6237259836       12.1661223757
  H        23.5764556527       19.6809258684       13.3777691250
  H        22.2954803827       16.1887030741       11.2184282555
  H        24.4796253616       16.1544226764       10.0001722893
  H        23.7049398470       17.6443404664       14.7892599622
  H        29.0072459361       21.7164923890        9.7612669643
  H        29.1447296692       21.7368607912        6.6052423679
  H        32.0707728687       18.5491067916       11.0040056087
  H        27.4099656458       19.0712078724        8.0572851635
  H        14.8494010080       19.6502631644       12.1376377614
  H        17.0128942004       19.6980559124       13.3795168943
  H        18.3039539839       16.1904203161       11.2515561314
  H        16.1363838351       16.1584331871       10.0093569818
  H        16.9227581702       17.7014693253       14.8442183675
  H        46.0943392858       15.4567487321       12.0812967163
  H        43.9719453923       15.4167872617       13.3951670038
  H        42.5646290445       18.8408893020       11.2042641155
  H        44.6871055217       18.8557970895        9.8807181943
  H        44.0344017331       17.3657235277       14.8414966157
  H        20.2907012541       17.9297838163       11.4168068393
  H        46.0383634526       15.3950502404        4.0320106133
  H        43.9062042320       15.3513179019        2.7344960691
  H        42.5327936298       18.8121256114        4.8878284682
  H        44.6711069975       18.8423608449        6.1855003271
  H        44.0191953392       17.3442541361        1.2919008477
  H        46.1994319692       26.6826635974        4.6233977355
  H        52.7410965729       21.0625584557        8.1947328532
  H        14.8923278306       19.6745582411        3.9000354945
  H        17.0938484584       19.7389163926        2.7222136921
  H        18.3244068628       16.2022191425        4.8374126577
  H        16.1260553688       16.1631748723        6.0264938191
  H        16.9445702935       17.7071033966        1.2915610374
  H        52.3219395050       21.6730023676        6.2943357814
  H        52.0128187421       21.7017388999        9.4955950507
  H        49.0681517039       18.6081205726        5.2044169461
  H        13.2476380100       19.0161846260        7.9768486658
  H        29.9316008094       12.4740431020       12.2671242928
  H        28.8607896552       10.5418858977       13.4330010220
  H        25.2524421390       11.1866838523       11.1830478824
  H        26.3432210202       13.1050605584       10.0074968713
  H        27.1290150599       11.6930731181       14.7890399718
  H        31.0110578697       22.7572857188       12.0366048439
  H        32.0206888810       24.6327925707       13.3333708824
  H        35.6954866631       24.1500038000       11.1501476105
  H        34.6651750050       22.2826323170        9.8453935312
  H        33.6913407336       23.5646293301       14.7602906393
  H        25.7000695176        8.5921616834       11.4078940831
  H        30.9088698260       22.6618410546        3.8985869286
  H        31.9280818167       24.5238240321        2.6009521939
  H        35.5340329024       24.1588792127        4.9193738579
  H        34.5005686102       22.2948451935        6.2173745866
  H        33.6418993455       23.5498547190        1.2058670546
  H        40.6050732210       17.1288961460        4.6641103352
  H        32.5500952999       14.1077980874        8.3555661657
  H        29.8704308147       12.5854868934        3.8784469659
  H        28.8428193529       10.6840192700        2.6230752334
  H        25.2201881873       11.1525601258        4.8948280963
  H        26.2693779304       13.0356001821        6.1594929791
  H        27.1277037022       11.7097489560        1.2365900625
  H        33.3088586451       14.0493936243        6.4783960168
  H        33.4115534736       14.4022108207        9.7084292643
  H        32.1488876575       18.5013991548        5.0836510288
  H        30.2566301665       14.1394883460        8.1531867745
  H        16.1181391459        2.9632881056       12.1293931017
  H        14.9529993481        4.8204271192       13.3221388006
  H        17.3668991702        7.6858443489       11.2106306556
  H        18.5155500117        5.8182218229       10.0108177175
  H        16.7537694887        5.7396084828       14.7714696388
  H        44.8280102282       32.1402676236       11.9770019050
  H        45.9372760118       30.3414306342       13.3065029184
  H        43.6822964621       27.3781574099       11.1526016615
  H        42.5996032437       29.1900174403        9.8099120578
  H        44.2302803521       29.4366669378       14.7690189453
  H        14.8512119513        8.5460988933       11.3633005722
  H        44.8999076439       32.2340114013        3.9319884002
  H        46.0248851106       30.4130184287        2.6524844944
  H        43.7634486425       27.4840141115        4.8452993352
  H        42.6455297952       29.3176834792        6.1243230451
  H        44.2684892666       29.4704209338        1.2183132347
  H        35.0157550973       26.6173778031        4.6508872557
  H        36.6052628042       35.1338274912        8.1808315360
  H        16.1435795866        3.0128674749        3.9041581032
  H        14.9740557579        4.8562664977        2.6883818739
  H        17.3963347032        7.7471031531        4.7549813690
  H        18.5433512472        5.8931214027        5.9826194480
  H        16.7648639322        5.7555227207        1.2192520346
  H        36.2790722201       34.4818182067        6.2732692242
  H        36.3816535934       34.2087014514        9.4997112341
  H        40.5789654281       33.2018337376        5.1541389186
  H        17.4710695797        1.9468073466        7.9740775573
  H        29.1576042815       19.4352640063       12.5522516130
  H        29.7715967634       19.8848572009        3.2617997286
  H        32.4564915588       15.9777936692        3.6758098476
  H        31.2494389659       15.6713152777       12.5574543992
  H        28.4243647595       17.9659733582       14.7815032671
  H        29.5961583927       15.8191487255       14.7779922251
  H        31.6482444120       19.8833612826        1.6061992883
  H        32.5577118216       17.7084614620        1.5238524771
  H        28.2516090255       15.1822792451        1.1993850767
  H        32.3837594567       18.6590606893       14.6374534585
  H        18.8541072856        0.8692310808       12.3352209741
  H        40.5280271854       35.2290096315        3.9521185830
  H        42.3238509571       34.4187659064        3.5906067534
  H        22.0878101555        0.6921468588       12.3512073823
  H        11.5968696132       18.7130756015       12.3827447245
  H        52.2648347330       18.4313147927        3.6768678347
  H        49.2552314775       16.4770609715        3.5846920485
  H        10.1502320813       15.7981074543       12.2928009215
  H        50.8500745343       17.6922903496        3.9543146978
  H        10.0461206229       17.3943662323       12.0520379827
  H        20.2155614608        0.0023668310       12.0418617238
  H        39.1836623844       36.1244304437        3.6865383865
 Ni        30.4388860967       17.8675907760        2.6599934723
 Ni        31.2435714196       16.7664326807        0.0055724074
 Ni        30.1371580013       18.9674786487        0.0842807471
 Ni        30.1768126592       17.5282550168       13.2390243363
  O        10.6500210126       14.3650346399        5.4858415671
  O        12.6132347380       14.6575103055        6.5838946961
  O        49.1483736369       16.8458575062        7.9897968945
  O        50.3503965036       20.9357834321        5.6481477864
  O        48.3486454737       20.5933729434        6.6659453544
  O        11.0521780014       17.0536322932        6.5005723227
  O        50.3211563160       20.8817306898       10.4068292926
  O        48.3468297409       20.5868853158        9.3272411813