     568
 i =      166, E =     -4744.3806568460
  C        11.8588554533       14.0535400773        5.7414896227
  C        12.4562989769       12.8905396392        5.0233367273
  C        11.7046451465       12.1717375871        4.0815345091
  C        12.2810069397       11.1095507650        3.3891607776
  C        13.6215060542       10.7395672995        3.6170811194
  C        14.3545971450       11.4429565818        4.5907449709
  C        13.7817291513       12.5079229944        5.2822801790
  C        14.2610709852        9.6489659399        2.8436396744
  C        14.2563634248        9.6569090857        1.4219383233
  C        13.7431763275       10.7590250091        0.6680322283
  C        49.1266398629       21.2333596669        5.8796975853
  C        48.5498545868       22.4012790502        5.1526674994
  C        49.2998271386       23.0685107688        4.1715660663
  C        48.7328756331       24.1075939908        3.4383183357
  C        47.4023737618       24.5092967937        3.6670555607
  C        46.6714825887       23.8605648238        4.6807071894
  C        47.2339707159       22.8157055786        5.4100874892
  C        46.7721372269       25.5869642692        2.8697633508
  C        46.7611043617       25.5572975463        1.4480067098
  C        47.2610267607       24.4421990609        0.7045131394
  C        14.8603252708        8.5706077182        0.7086374990
  C        14.8919144751        8.5970298703        3.5202603608
  C        49.1132041285       21.2035396448       10.1452943319
  C        48.5278717353       22.3648854925       10.8724654521
  C        49.2669880325       23.0254215695       11.8655854704
  C        48.6906723283       24.0599756525       12.5970555257
  C        47.3603385641       24.4569068703       12.3586288309
  C        46.6400104796       23.8121927869       11.3349198992
  C        47.2135815713       22.7762938172       10.6031508976
  C        46.7218583215       25.5318388955       13.1496608299
  C        46.7334786379       25.5281610459       14.5713619262
  C        47.2487839653       24.4288909415       15.3277518286
  C        40.6323933133       17.1167979417       15.3204572731
  C        40.6515755023       17.1545775364       12.5113082347
  C        11.8830192973       14.0864110243       10.2854201721
  C        12.4723448073       12.9106726096       10.9896505757
  C        11.7149042243       12.1776950621       11.9160109405
  C        12.2814826654       11.0952500126       12.5844323724
  C        13.6202177593       10.7213131954       12.3524047868
  C        14.3580613513       11.4366109550       11.3912940970
  C        13.7926586112       12.5177709142       10.7185794057
  C        14.2538303390        9.6246003882       13.1228342876
  C        14.2525251886        9.6445930846       14.5446738614
  C        13.7426453044       10.7535206351       15.2917773222
  C        22.5114795321        3.2451560227        5.7538172580
  C        23.2239408159        4.3530832267        5.0565209598
  C        24.2221509818        4.0787009993        4.1100418646
  C        24.8450481014        5.1222591998        3.4302367284
  C        24.4851995133        6.4622510895        3.6765041615
  C        23.5158044131        6.7281430529        4.6605589800
  C        22.8884200816        5.6865595085        5.3388041512
  C        25.0845374223        7.5722933397        2.9012000307
  C        25.0561301740        7.5639074988        1.4798282492
  C        24.3555368457        6.5623301805        0.7352488579
  C        38.3023625670       31.9283934899        5.8491167377
  C        37.5727340550       30.8378511447        5.1401455665
  C        36.6109604583       31.1400941177        4.1639682327
  C        35.9940992930       30.1188174131        3.4464106881
  C        36.3240436572       28.7700140048        3.6834054731
  C        37.2560707561       28.4751847840        4.6961983580
  C        37.8771143910       29.4951323112        5.4124928353
  C        35.7240858870       27.6769385956        2.8852937799
  C        35.7604615621       27.6907853408        1.4639121327
  C        36.4649321517       28.6950236657        0.7277529176
  C        25.6758517992        8.6347838664        0.7587992690
  C        25.6758770202        8.6510104980        3.5711200149
  C        38.3294034127       31.9620986133       10.1563449149
  C        37.6099166604       30.8877031469       10.8985280126
  C        36.6815769314       31.1939789012       11.9051756192
  C        36.0742502011       30.1736600388       12.6345804473
  C        36.3813841012       28.8218919628       12.3808144167
  C        37.2872898993       28.5256244174       11.3440337456
  C        37.8965809971       29.5423257340       10.6159143972
  C        35.7769347763       27.7205730530       13.1644714379
  C        35.7877010361       27.7131894931       14.5865083879
  C        36.4775400336       28.7060396207       15.3509350356
  C        46.1353918790       26.6207685375       15.2814732954
  C        46.0880055979       26.5802509090       12.4735912477
  C        22.4596662402        3.2564771219       10.2591919404
  C        23.1496494850        4.3661171802       10.9848715614
  C        24.1464191124        4.0821933193       11.9320556028
  C        24.7699689821        5.1137502184       12.6301516446
  C        24.4175925281        6.4594570697       12.4035632389
  C        23.4439254860        6.7364556949       11.4250439402
  C        22.8153334434        5.7052150980       10.7278990329
  C        25.0452838187        7.5597146428       13.1777172032
  C        25.0364136665        7.5567732189       14.6006651756
  C        24.3436970883        6.5603485887       15.3584627762
  C        26.6209286874       17.8629276967        5.7451178385
  C        25.3130964052       17.9312132271        5.0275382166
  C        25.0562619902       18.9314588155        4.0770833809
  C        23.8372732745       18.9635242419        3.4021145190
  C        22.8423018541       17.9970293924        3.6537688706
  C        23.0951649202       17.0217872224        4.6367757003
  C        24.3134790445       16.9863985747        5.3118030021
  C        21.5691985548       17.9832002083        2.8911801196
  C        21.5711593875       17.9576786910        1.4690055438
  C        22.7779065544       17.8325499903        0.7106798969
  C        34.4385004215       17.1906079208        5.9201490895
  C        35.7314161628       17.1422640396        5.1758068844
  C        35.9418466491       16.1671221355        4.1882537866
  C        37.1214982147       16.1557219276        3.4496899255
  C        38.1240554398       17.1174558817        3.6804550661
  C        37.9172480238       18.0730854813        4.6932883643
  C        36.7339774923       18.0905712412        5.4282339447
  C        39.3784093814       17.1245354837        2.8944902357
  C        39.3741813040       17.1327828218        1.4729353978
  C        38.1667978683       17.2469634333        0.7143416279
  C        20.3252905051       17.9698197428        0.7597282663
  C        20.3444974801       17.9808148915        3.5732096041
  C        34.4708475847       17.2431099826       10.1798229955
  C        35.7733244038       17.1682894993       10.9049353811
  C        35.9900181057       16.1764600670       11.8729782661
  C        37.1763293471       16.1542477310       12.6008556590
  C        38.1738184610       17.1232776853       12.3794933678
  C        37.9633587293       18.0910578540       11.3799214263
  C        36.7749901731       18.1179295781       10.6547739166
  C        39.4205462792       17.1375372220       13.1753563516
  C        39.3959569681       17.1400965633       14.5963056015
  C        38.1770893381       17.2487705451       15.3375210496
  C        35.1609126437       26.6314562783       15.2896115620
  C        35.1886234261       26.6493587015       12.4803560115
  C        26.5714325044       17.8306058750       10.3211781221
  C        25.2565610570       17.8792425012       11.0272562739
  C        24.9923334294       18.8907806591       11.9630492826
  C        23.7743871326       18.9209876851       12.6365116914
  C        22.7915529236       17.9397555335       12.3975539719
  C        23.0502490743       16.9527815557       11.4292303274
  C        24.2689135901       16.9205329842       10.7539236462
  C        21.5273114773       17.9268014785       13.1696015861
  C        21.5493499193       17.9270801366       14.5910623727
  C        22.7671624973       17.8175973773       15.3345130847
  C        14.0463493132       17.8303508658       10.2869711623
  C        15.3514394038       17.8918588849       11.0092011558
  C        15.6077038087       18.9007621523       11.9507094327
  C        16.8171149089       18.9263070163       12.6420916356
  C        17.8035357368       17.9457578108       12.4137142928
  C        17.5523245842       16.9613424182       11.4394474246
  C        16.3423585049       16.9313630818       10.7494017703
  C        19.0716194117       17.9331606249       13.1831276844
  C        19.0681699871       17.9375859525       14.6054791816
  C        17.8604448102       17.8401386868       15.3659044984
  C        46.8062624929       17.2191937644       10.1592199077
  C        45.5177474575       17.1590217922       10.9066211374
  C        45.3129819863       16.1820697722       11.8930482304
  C        44.1323532470       16.1653144803       12.6305678514
  C        43.1275672119       17.1257800388       12.4031601238
  C        43.3299026701       18.0828891410       11.3906532846
  C        44.5111736350       18.1034248342       10.6540589625
  C        41.8748010233       17.1366295183       13.1912442369
  C        41.8796491220       17.1323724845       14.6129581739
  C        43.0880262981       17.2270117773       15.3725602300
  C        20.3139534628       17.9544547982       15.3148516945
  C        20.2961140708       17.9104772428       12.5019628082
  C        46.7856774607       17.2309199962        5.8900050105
  C        45.4821716003       17.1250850492        5.1756720440
  C        45.2633777659       16.1271769145        4.2140500000
  C        44.0752356056       16.1014759969        3.4882015623
  C        43.0771606944       17.0706253381        3.7073891829
  C        43.2859393983       18.0377791557        4.7081141722
  C        44.4752739979       18.0699502435        5.4288814469
  C        41.8318236604       17.0944857399        2.9099047316
  C        41.8578529973       17.1094686649        1.4891343617
  C        43.0778059774       17.2134793084        0.7492133221
  C        46.1531731779       26.6371998468        0.7262274432
  C        46.1622378556       26.6561309307        3.5358592654
  C        14.0446674962       17.8335729987        5.7087778913
  C        15.3643042913       17.9143434242        5.0167566440
  C        15.6299411243       18.9341013981        4.0905074001
  C        16.8567977388       18.9802259344        3.4324723019
  C        17.8457571497       18.0059871041        3.6753436728
  C        17.5867888208       17.0147496602        4.6395079147
  C        16.3617209113       16.9679898723        5.3009982345
  C        19.1125880295       17.9909996057        2.9055254488
  C        19.0895995091       17.9666578547        1.4839447314
  C        17.8708580555       17.8529546153        0.7422494699
  C        28.8045290238       14.0910247172       10.3906852279
  C        28.1876342926       12.9185355906       11.0782543896
  C        28.9077423191       12.1761694507       12.0258471476
  C        28.3042836927       11.1049906874       12.6799737955
  C        26.9668264589       10.7513961194       12.4095940489
  C        26.2686507243       11.4732824014       11.4250435279
  C        26.8696977805       12.5453176704       10.7700287049
  C        26.2952526026        9.6740516362       13.1723352293
  C        26.2805219334        9.7039163534       14.5934353058
  C        26.7818392519       10.8189271297       15.3376687251
  C        32.1812067907       21.2374306860       10.1389617544
  C        32.7815562546       22.3996580611       10.8609047062
  C        32.0388774296       23.0741987142       11.8421837613
  C        32.6138660068       24.1108548281       12.5712408847
  C        33.9468376129       24.5020403878       12.3391130613
  C        34.6717180594       23.8460229890       11.3264178853
  C        34.0994212122       22.8032949360       10.5997927967
  C        34.5781573659       25.5765827504       13.1390650244
  C        34.5735983958       25.5460804164       14.5606246878
  C        34.0723094363       24.4272733351       15.2978644666
  C        25.6714528642        8.6268247151       15.3137812708
  C        25.6605286545        8.6213670042       12.5002796703
  C        32.1159075896       21.1899369865        5.8450744210
  C        32.7009282302       22.3498827616        5.1096416008
  C        31.9753284192       22.9967383819        4.0974135744
  C        32.5534931777       24.0368186915        3.3732500903
  C        33.8721367134       24.4563929295        3.6390835852
  C        34.5787783694       23.8227628892        4.6793364540
  C        34.0042322909       22.7807731489        5.4023410675
  C        34.5144015685       25.5395664185        2.8594571895
  C        34.5405637961       25.5270632656        1.4375706085
  C        34.0562851741       24.4181659733        0.6744821737
  C        40.6210204937       17.1091134336        0.7649051019
  C        40.6010920723       17.1217851763        3.5747381525
  C        28.7174900777       14.0959211994        5.8201563946
  C        28.0984640684       12.9503379043        5.0874507026
  C        28.8349487551       12.2513828219        4.1183149760
  C        28.2544934469       11.1953699402        3.4202301599
  C        26.9210332244       10.8100990500        3.6656176884
  C        26.2011703748       11.4968720923        4.6614697503
  C        26.7800154216       12.5548113566        5.3612499360
  C        26.2831219982        9.7160887772        2.8931732504
  C        26.2759011227        9.7253163456        1.4708790738
  C        26.7769230907       10.8308309970        0.7138995912
  C        18.1354436125        3.1809820142       10.3172000599
  C        17.4062305074        4.2782523764       11.0158850951
  C        16.3901875601        3.9999448851       11.9430623775
  C        15.7424710298        5.0399513723       12.6065336875
  C        16.0947344821        6.3836233812       12.3671280668
  C        17.0844516891        6.6531296410       11.4037141627
  C        17.7335321451        5.6157485662       10.7387033204
  C        15.4703508675        7.4913191314       13.1301468249
  C        15.4856017757        7.4906341624       14.5518576876
  C        16.1871758728        6.4970191685       15.3050082004
  C        42.9459252932       31.8596097545       10.0728619904
  C        43.6463531919       30.7719276625       10.8168255588
  C        44.5918965066       31.0932731065       11.8028644939
  C        45.1976078932       30.0877243038       12.5505315360
  C        44.8711765601       28.7346707168       12.3356591139
  C        43.9453983306       28.4203123625       11.3224171289
  C        43.3365770583       29.4254500641       10.5743817395
  C        45.4887166101       27.6553417900       13.1388357233
  C        45.4927950026       27.6809439726       14.5605278581
  C        44.8056925124       28.6889872178       15.3071438408
  C        14.8565766517        8.5631008234       15.2642072144
  C        14.8751063202        8.5630919883       12.4515499713
  C        42.9464433815       31.9617014157        5.8089248948
  C        43.6917234457       30.8855416737        5.0954587903
  C        44.6563528173       31.1914471573        4.1232081715
  C        45.2778057667       30.1718431236        3.4054340206
  C        44.9540127718       28.8215373456        3.6430720630
  C        44.0204999319       28.5238897011        4.6538223859
  C        43.3923110266       29.5406589684        5.3660548669
  C        45.5629480899       27.7241125138        2.8577842744
  C        45.5331985056       27.7173691341        1.4364921183
  C        44.8269319340       28.7076356470        0.6835365566
  C        35.1455753714       26.6209213896        0.7346234080
  C        35.1178996892       26.6014604278        3.5444035004
  C        18.1486314593        3.2469610998        5.7065875843
  C        17.4301485775        4.3438160725        4.9971812443
  C        16.4146690975        4.0525900823        4.0738998821
  C        15.7663872656        5.0832617465        3.3985394884
  C        16.1213399890        6.4284527348        3.6210276821
  C        17.1130720171        6.7117867853        4.5779221773
  C        17.7607280413        5.6828464485        5.2576698995
  C        15.4907726231        7.5241508559        2.8486296930
  C        15.4966136698        7.5075322195        1.4274996726
  C        16.1934067859        6.5058382387        0.6808209942
  H        10.6725732125       12.4659835962        3.9043755278
  H        11.6947685345       10.5511635135        2.6625108936
  H        15.3915674644       11.1682276997        4.7726282147
  H        14.3511699086       13.0710281255        6.0178233544
  H        13.3761940284       11.6311679857        1.2013300761
  H        50.3225051334       22.7484100350        3.9867730238
  H        49.3193129399       24.6227992765        2.6806648350
  H        45.6420475168       24.1614626611        4.8639843116
  H        46.6630326133       22.2905598919        6.1723029050
  H        47.6295158733       23.5758038930        1.2462005413
  H        14.8723239612        8.5882585793        4.6085683154
  H        50.2869820019       22.7024620520       12.0605920261
  H        49.2690186306       24.5753524241       13.3606461445
  H        45.6107061860       24.1096527872       11.1456656667
  H        46.6528509066       22.2542977163        9.8314082806
  H        47.6075945197       23.5517751706       14.7968703022
  H        40.6580322703       17.1270062451       11.4233770291
  H        48.6871695189       14.0949219460        7.8000829911
  H        10.6814935246       12.4668923344       12.0935472878
  H        11.6897493575       10.5249712996       13.2972681968
  H        15.3934128118       11.1585527517       11.2051685417
  H        14.3649394625       13.0869475458        9.9898539546
  H        13.3758549081       11.6221588795       14.7531573152
  H        47.9302667054       14.2182180741        9.7108372394
  H        47.7800717706       14.3736628472        6.4953526305
  H        49.0840939578       18.5525195400       10.8675663813
  H        10.4163099126       14.1342588018        7.9986814225
  H        24.4873349004        3.0415562766        3.9171107311
  H        25.6189720762        4.9094972139        2.6959368767
  H        23.2307411114        7.7595746356        4.8572581750
  H        22.1174498450        5.8823652290        6.0799708217
  H        23.7956384286        5.8054701715        1.2767778234
  H        36.3716652096       32.1829269619        3.9695316004
  H        35.2482763095       30.3569289997        2.6911809229
  H        37.5186876852       27.4365321995        4.8861428612
  H        38.6224741113       29.2752419087        6.1731327277
  H        37.0261722457       29.4469955746        1.2747689601
  H        25.7104518875        8.6351934035        4.6589786974
  H        36.4568617285       32.2376251670       12.1133762196
  H        35.3487226804       30.4164824617       13.4077963022
  H        37.5361249553       27.4860298156       11.1414338480
  H        38.6186197665       29.3188204313        9.8343753845
  H        37.0497329245       29.4659640924       14.8265634051
  H        46.1095121185       26.5877371820       11.3855586375
  H        44.6683091713       35.1162653092        7.8138828434
  H        24.4236606644        3.0443957112       12.1027420905
  H        25.5467560674        4.8859647492       13.3569801374
  H        23.1600337761        7.7705696797       11.2405767126
  H        22.0478377709        5.9169777799        9.9870226235
  H        23.7738022364        5.8027667784       14.8283538028
  H        44.9541029217       34.3906987423        9.6954021119
  H        44.9016894190       34.2068281110        6.4906112702
  H        40.6661283624       33.2091884094       10.8531291208
  H        23.1501981371        1.9584245893        8.0056663240
  H        25.8201909404       19.6813832527        3.8839756821
  H        23.6412979685       19.7452435798        2.6712870817
  H        22.3379708173       16.2671783432        4.8397433251
  H        24.5207937861       16.2203005933        6.0552577447
  H        23.7182387717       17.7158937081        1.2414161138
  H        35.1656538173       15.4269519874        4.0098043026
  H        37.2837135560       15.3917887769        2.6923895707
  H        38.6839482659       18.8233817878        4.8753687822
  H        36.5574268583       18.8422120710        6.1942429856
  H        37.2267788345       17.3638233606        1.2458616866
  H        20.3504740637       18.0213225965        4.6610517162
  H        35.2095934095       15.4401806677       12.0502874155
  H        37.3445492993       15.3818581223       13.3482085855
  H        38.7279744864       18.8452572029       11.2054815415
  H        36.5899157321       18.8813368183        9.9027334007
  H        37.2450695043       17.3660050744       14.7921762367
  H        35.1586979968       26.6775135732       11.3927727559
  H        28.5129724608       21.0787000079        7.8846915679
  H        25.7539433260       19.6459874240       12.1437691736
  H        23.5689361136       19.7098929645       13.3568647723
  H        22.2996026517       16.1883040743       11.2392789356
  H        24.4846492000       16.1472147223       10.0204851535
  H        23.6990634322       17.6899884258       14.7918836310
  H        29.0052445018       21.7198770690        9.7439198120
  H        29.1549516280       21.7451389802        6.5470157195
  H        32.0881845320       18.5718419900       10.9687241164
  H        27.3933344205       19.0617804430        8.0287386317
  H        14.8484810308       19.6598206363       12.1252914861
  H        17.0129653600       19.7143736666       13.3660366473
  H        18.3041606162       16.1967732226       11.2547385757
  H        16.1358910411       16.1583580451       10.0129970780
  H        16.9186441329       17.7215407431       14.8380576853
  H        46.0959337385       15.4495243474       12.0744925577
  H        43.9731158526       15.3998812903       13.3868784095
  H        42.5618244739       18.8324239965       11.2116223600
  H        44.6845643485       18.8563086056        9.8887551009
  H        44.0298591155       17.3431916819       14.8439352053
  H        20.2908452690       17.9336187924       11.4136725539
  H        46.0401590016       15.3868540771        4.0367272770
  H        43.9077800751       15.3276737998        2.7421681871
  H        42.5197899934       18.7900892341        4.8835721947
  H        44.6588510946       18.8357732949        6.1784333763
  H        44.0117896102       17.3180735050        1.2936822328
  H        46.1991459912       26.6827440907        4.6233004512
  H        52.7411450574       21.0626749108        8.1946547708
  H        14.8648611711       19.6842886712        3.9032625032
  H        17.0619409852       19.7740953845        2.7174834526
  H        18.3420995703       16.2561550970        4.8343119020
  H        16.1465714916       16.1899837448        6.0294940267
  H        16.9369621121       17.7440250718        1.2854675525
  H        52.3224347071       21.6734641942        6.2945017085
  H        52.0133093262       21.7021717114        9.4956556033
  H        49.0674893338       18.6078077722        5.2040869003
  H        13.2473191852       19.0166559737        7.9770526475
  H        29.9385545183       12.4533533548       12.2350665756
  H        28.8640646713       10.5284254552       13.4132729617
  H        25.2353176155       11.2099124344       11.2086941205
  H        26.3283058886       13.1246453209       10.0261074174
  H        27.1447196439       11.6865281819       14.7949069074
  H        31.0145266815       22.7599872621       12.0277348945
  H        32.0327631928       24.6331360813       13.3281682594
  H        35.7032258748       24.1387407288       11.1411392193
  H        34.6645585969       22.2715188234        9.8377058767
  H        33.7230702681       23.5569295364       14.7498414205
  H        25.6922751196        8.5999645455       11.4123618317
  H        30.9623187968       22.6625054100        3.8846700972
  H        31.9835547859       24.5410935473        2.5959208783
  H        35.5991636545       24.1355097400        4.8912056591
  H        34.5549069442       22.2705383126        6.1891974178
  H        33.6955146030       23.5398564930        1.2019169080
  H        40.5935665646       17.0864224048        4.6624695859
  H        32.5045909691       14.1448057382        8.2562023964
  H        29.8632396724       12.5522703472        3.9310996452
  H        28.8338924991       10.6499032216        2.6784269051
  H        25.1694608857       11.2126144101        4.8583604558
  H        26.2199246296       13.0999129318        6.1174987248
  H        27.1344416401       11.7079519205        1.2454528172
  H        33.3089333110       14.2296135782        6.4664941289
  H        33.4071227824       14.4204449680        9.5964537195
  H        32.1699907319       18.4897146934        5.1756643888
  H        30.1792483782       14.1540901711        8.0760867592
  H        16.1178745450        2.9634638813       12.1292334604
  H        14.9527863295        4.8206381057       13.3219567513
  H        17.3672257111        7.6859656643       11.2108916579
  H        18.5158769527        5.8183457764       10.0111687438
  H        16.7537577684        5.7397179270       14.7714763588
  H        44.8281634313       32.1403622211       11.9770412298
  H        45.9374828713       30.3414819142       13.3064657380
  H        43.6827459665       27.3782402872       11.1522667134
  H        42.5999932471       29.1901519889        9.8096771656
  H        44.2304348698       29.4368068796       14.7688087100
  H        14.8514039838        8.5463329409       11.3633280048
  H        44.8999344249       32.2341281216        3.9318001914
  H        46.0247392298       30.4130709738        2.6522222525
  H        43.7635525531       27.4841601163        4.8454000917
  H        42.6458431316       29.3179040779        6.1245415526
  H        44.2684836670       29.4705700905        1.2181172362
  H        35.0693078656       26.6163369021        4.6316067627
  H        36.6051752302       35.1339701884        8.1807576495
  H        16.1433564981        3.0130359746        3.9043994491
  H        14.9738550067        4.8564816532        2.6886639097
  H        17.3969124584        7.7472129252        4.7545250368
  H        18.5438894968        5.8932560690        5.9821402529
  H        16.7648697517        5.7556295529        1.2192729993
  H        36.2785839133       34.4823415735        6.2731131806
  H        36.3809055119       34.2091605028        9.4997517562
  H        40.5803176096       33.2026056042        5.1533548577
  H        17.4708362024        1.9472098604        7.9741342513
  H        29.0901131909       19.4031491675       12.4904182829
  H        28.8261736628       18.6444978102        3.6851603634
  H        32.0438493393       15.8275450308        3.6210444360
  H        31.2898178317       15.5799834411       12.5114929170
  H        27.9834842732       17.8911045999       14.6744730727
  H        29.5664729006       15.2864843141       14.6378953337
  H        32.8956898540       17.5564455311        1.4277213867
  H        32.1889666183       18.6942772753       14.7486222842
  H        18.8539131533        0.8691735113       12.3353216631
  H        40.5278390133       35.2289711988        3.9520137385
  H        42.3247531439       34.4196476827        3.5901454428
  H        22.0878052587        0.6926242656       12.3512329891
  H        11.5968338730       18.7131257341       12.3826769279
  H        52.2646723475       18.4310809744        3.6772852424
  H        49.2551801702       16.4767283158        3.5844533516
  H        10.1510219630       15.7981452216       12.2924367224
  H        50.8498227934       17.6924372258        3.9541666544
  H        10.0465584362       17.3945289987       12.0519603348
  H        20.2153478111        0.0024489171       12.0418972135
  H        39.1835904754       36.1244179903        3.6865836083
 Ni        30.8970831262       17.7500051103        2.8328791770
 Ni        31.2005642285       16.4956194179        0.0814863201
 Ni        29.8883284750       18.4233125739        0.1665490201
 Ni        30.1837983195       17.4790155591       13.2445668654
  O        10.6500259065       14.3651132190        5.4858566111
  O        12.6132248591       14.6575484305        6.5839082989
  O        49.1479341436       16.8458799135        7.9897205368
  O        50.3501140273       20.9361697966        5.6481986448
  O        48.3484990110       20.5932884448        6.6659306233
  O        11.0515977612       17.0538579855        6.5007650697
  O        50.3209436111       20.8816567804       10.4069079843
  O        48.3467300752       20.5867724991        9.3271219708
  O        49.5437407099       18.2484053518       10.0682995471
  O        12.3589904508       18.6245862810        7.9996110856