     566
 i =      236, E =     -4712.2833247694
  C        11.8587633035       14.0534674689        5.7415170141
  C        12.4562331395       12.8905162125        5.0233042072
  C        11.7045687098       12.1716278873        4.0815804786
  C        12.2809579827       11.1094229851        3.3892577462
  C        13.6215370232       10.7396230456        3.6169979215
  C        14.3546746717       11.4431656823        4.5905115693
  C        13.7817810690       12.5081386772        5.2820138113
  C        14.2610592701        9.6489639986        2.8436047757
  C        14.2563036947        9.6568850193        1.4219086347
  C        13.7430863967       10.7589883166        0.6680079336
  C        49.1268849337       21.2332342026        5.8796115754
  C        48.5501943529       22.4012210169        5.1525908639
  C        49.3002102706       23.0684795175        4.1715368886
  C        48.7332984319       24.1076490783        3.4383677460
  C        47.4028094905       24.5094266924        3.6670846700
  C        46.6718848565       23.8606036124        4.6806531498
  C        47.2343048140       22.8156688756        5.4099791798
  C        46.7725425423       25.5871107724        2.8698185423
  C        46.7615005415       25.5574703990        1.4480592171
  C        47.2613772897       24.4423488539        0.7045670095
  C        14.8602724806        8.5705764699        0.7086307325
  C        14.8919269478        8.5970585998        3.5202430088
  C        49.1131088154       21.2034924985       10.1453604218
  C        48.5277584754       22.3648429477       10.8725238469
  C        49.2669449915       23.0254295967       11.8655555719
  C        48.6906449051       24.0600048116       12.5970057692
  C        47.3602779883       24.4569015277       12.3586973709
  C        46.6399286197       23.8121460649       11.3350243543
  C        47.2134528948       22.7762249296       10.6032448127
  C        46.7218643300       25.5318862787       13.1497144803
  C        46.7335983877       25.5282219899       14.5714165870
  C        47.2490538046       24.4290235391       15.3278073125
  C        40.6323742730       17.1388733222       15.3251187427
  C        40.6548199819       17.1841331925       12.5158917661
  C        11.8829990296       14.0864929797       10.2855299971
  C        12.4723148776       12.9107396371       10.9897451850
  C        11.7148126743       12.1775468653       11.9158825951
  C        12.2814143210       11.0950876241       12.5842621153
  C        13.6202462279       10.7213693871       12.3524440697
  C        14.3581897953       11.4369149698       11.3916000761
  C        13.7927570092       12.5180881727       10.7189264759
  C        14.2538377751        9.6246092044       13.1228322760
  C        14.2524746814        9.6445582062       14.5446672368
  C        13.7425602745       10.7534783603       15.2917559537
  C        22.5106953611        3.2443424037        5.7524652972
  C        23.2224279589        4.3499385005        5.0512950994
  C        24.2162607982        4.0708345959        4.1015756974
  C        24.8404634844        5.1111525308        3.4183243292
  C        24.4864377062        6.4526078266        3.6645710332
  C        23.5207877992        6.7231560726        4.6511649790
  C        22.8919119227        5.6847092698        5.3328536669
  C        25.0902731761        7.5596349458        2.8886561777
  C        25.0624949691        7.5529690927        1.4672239451
  C        24.3594132096        6.5542970439        0.7211907864
  C        38.2986833877       31.9283115392        5.8516678494
  C        37.5578586989       30.8403108754        5.1490161016
  C        36.5912528740       31.1489882976        4.1793851631
  C        35.9601935737       30.1324186333        3.4677492501
  C        36.2804443942       28.7807334634        3.7022620476
  C        37.2172471238       28.4793952114        4.7089536551
  C        37.8521256848       29.4950571589        5.4202675183
  C        35.6661780055       27.6945960147        2.9041432074
  C        35.6966756036       27.7136340106        1.4821509763
  C        36.4090766294       28.7130664089        0.7467497774
  C        25.6869278677        8.6221611823        0.7474169085
  C        25.6879982447        8.6340411035        3.5593354795
  C        38.3276290049       31.9611567568       10.1593372407
  C        37.6016616474       30.8922773570       10.9070967538
  C        36.6725787019       31.2108202287       11.9100404698
  C        36.0512126378       30.2004693021       12.6422759597
  C        36.3423064341       28.8435203592       12.3961196366
  C        37.2518581759       28.5349088763       11.3655014835
  C        37.8759164846       29.5421321055       10.6347437861
  C        35.7168217463       27.7511674639       13.1796342670
  C        35.7221567955       27.7429897909       14.6026723289
  C        36.4208511593       28.7274517977       15.3698772058
  C        46.1356209617       26.6208754017       15.2815529169
  C        46.0878856177       26.5802320991       12.4736632946
  C        22.4603500161        3.2554437706       10.2569330374
  C        23.1534265547        4.3643331740       10.9789661632
  C        24.1553357368        4.0791138165       11.9201169462
  C        24.7819782543        5.1101206688       12.6156211997
  C        24.4266211116        6.4553846062       12.3922330033
  C        23.4480575078        6.7338425550       11.4193580608
  C        22.8166552449        5.7031319533       10.7243911918
  C        25.0559412475        7.5538633564       13.1662051032
  C        25.0461247780        7.5489201060       14.5886826060
  C        24.3497509727        6.5535154321       15.3443968526
  C        26.6100934628       17.8546378731        5.7830280175
  C        25.3082471555       17.8973713376        5.0543281675
  C        25.0447353147       18.8969650925        4.1041746006
  C        23.8333014923       18.9133226649        3.4162950468
  C        22.8475747305       17.9350281618        3.6580866859
  C        23.1069950614       16.9577811678        4.6377256254
  C        24.3211527148       16.9345440335        5.3219382861
  C        21.5749653834       17.9208143077        2.8934862984
  C        21.5763364457       17.9067109978        1.4708016569
  C        22.7825142901       17.7908554987        0.7097911917
  C        34.4335037712       17.1946799145        5.9223765781
  C        35.7279453228       17.1450198949        5.1804352397
  C        35.9341152059       16.1758820038        4.1862116832
  C        37.1140465225       16.1650827783        3.4477536298
  C        38.1202430818       17.1216032595        3.6846903844
  C        37.9176784102       18.0701905077        4.7050921505
  C        36.7345604955       18.0869615935        5.4401700839
  C        39.3744996989       17.1320239069        2.8980502176
  C        39.3715795382       17.1481349299        1.4762762137
  C        38.1650369078       17.2670629436        0.7170284893
  C        20.3294825348       17.9256690270        0.7628521966
  C        20.3504556946       17.9200884153        3.5762813621
  C        34.4753818184       17.2533715259       10.1843145210
  C        35.7772891966       17.1814284953       10.9064522368
  C        36.0080594402       16.1799852904       11.8618568311
  C        37.1925723208       16.1658207674       12.5921477853
  C        38.1777360311       17.1496688855       12.3824056038
  C        37.9565099771       18.1248008547       11.3923483396
  C        36.7681643444       18.1458758015       10.6673341114
  C        39.4237293037       17.1666532588       13.1793858453
  C        39.3965267146       17.1650372468       14.6001821433
  C        38.1767624073       17.2725275792       15.3400129725
  C        35.0819456881       26.6675591721       15.3049297999
  C        35.1141844998       26.6879110271       12.4945793943
  C        26.5679418758       17.8241652907       10.3265821673
  C        25.2527721900       17.8770053405       11.0274493907
  C        24.9799493923       18.8950412753       11.9536563082
  C        23.7624339715       18.9202905103       12.6278152329
  C        22.7880926123       17.9292335526       12.3967356987
  C        23.0531679605       16.9377409229       11.4348101898
  C        24.2720720569       16.9089348806       10.7606098398
  C        21.5254378576       17.9104026490       13.1712656828
  C        21.5506795378       17.9015176456       14.5926601855
  C        22.7701882754       17.7893288651       15.3331868806
  C        14.0459593342       17.8291195777       10.2881598533
  C        15.3500484182       17.8867813376       11.0127146932
  C        15.6050691909       18.8887876443       11.9619031551
  C        16.8139480565       18.9098161277       12.6545681669
  C        17.8013822915       17.9318404432       12.4195135048
  C        17.5511753090       16.9542890494       11.4380642284
  C        16.3416517535       16.9284873048       10.7472148516
  C        19.0701566292       17.9150087395       13.1878167383
  C        19.0692386987       17.9097050739       14.6100562463
  C        17.8624215812       17.8063271188       15.3709958533
  C        46.8065762698       17.2208118234       10.1603522964
  C        45.5191694021       17.1658603916       10.9100486742
  C        45.3121925437       16.1925375030       11.8995670291
  C        44.1323421671       16.1822299609       12.6386291954
  C        43.1305167679       17.1455356000       12.4096132196
  C        43.3353669602       18.0992242948       11.3944018813
  C        44.5157012599       18.1133503947       10.6563692808
  C        41.8774479605       17.1614726736       13.1970818708
  C        41.8803967320       17.1547236967       14.6187718786
  C        43.0882394368       17.2460175680       15.3796079437
  C        20.3160695660       17.9217351708       15.3179696657
  C        20.2937761417       17.8969274080       12.5048705296
  C        46.7851910277       17.2305803315        5.8906547138
  C        45.4803737620       17.1245484904        5.1786235068
  C        45.2601454559       16.1282598073        4.2156493453
  C        44.0711903242       16.1043345420        3.4909382631
  C        43.0735096998       17.0733067104        3.7129252918
  C        43.2832134922       18.0378885661        4.7159153430
  C        44.4734459973       18.0685341340        5.4352547119
  C        41.8284282751       17.1008706309        2.9149256907
  C        41.8556013382       17.1224280548        1.4943815967
  C        43.0763633063       17.2284581367        0.7560975450
  C        46.1534127276       26.6373120579        0.7263147289
  C        46.1626110872       26.6562397547        3.5359578788
  C        14.0451958790       17.8303091508        5.7078956925
  C        15.3655247551       17.9009601344        5.0156514167
  C        15.6405553458       18.9144625699        4.0854931247
  C        16.8692432133       18.9481879052        3.4298768048
  C        17.8507288606       17.9674734190        3.6784017800
  C        17.5823838830       16.9826595192        4.6464374140
  C        16.3557552236       16.9484686958        5.3056324111
  C        19.1179723905       17.9407760472        2.9095008105
  C        19.0944145155       17.9207408215        1.4879468689
  C        17.8747111546       17.8110930344        0.7471981255
  C        28.8076294336       14.0902012729       10.3895825520
  C        28.1939132031       12.9141107146       11.0718110976
  C        28.9192118412       12.1679825447       12.0121616172
  C        28.3190680212       11.0944681705       12.6652474956
  C        26.9799632108       10.7432221704       12.4005775188
  C        26.2769735412       11.4678825764       11.4216407563
  C        26.8748335931       12.5420671341       10.7676335179
  C        26.3095282637        9.6652621993       13.1630938217
  C        26.2955532502        9.6929236046       14.5840654643
  C        26.7995110477       10.8060778829       15.3289996580
  C        32.1027230894       21.2367328701       10.2125222014
  C        32.6904265569       22.4176393387       10.9125182226
  C        31.9534962168       23.0913927444       11.8988302232
  C        32.5241232502       24.1458725569       12.6053064523
  C        33.8504999192       24.5492707195       12.3546905363
  C        34.5670668511       23.8956433763       11.3342544248
  C        33.9962033555       22.8419126213       10.6230394782
  C        34.4884714803       25.6221396947       13.1518528233
  C        34.4839041312       25.5890606772       14.5741335430
  C        33.9756043252       24.4723388199       15.3104089910
  C        25.6833902039        8.6163836787       15.3028385134
  C        25.6727876037        8.6148045098       12.4898142767
  C        32.0762284907       21.2017012188        5.8795909667
  C        32.6436692429       22.3673219744        5.1385948278
  C        31.9046307265       23.0215659489        4.1407340593
  C        32.4747163026       24.0629732537        3.4101038927
  C        33.7979680388       24.4810237179        3.6569179491
  C        34.5176205958       23.8407370164        4.6844452562
  C        33.9528845851       22.7958626992        5.4106646024
  C        34.4364837373       25.5671787644        2.8754294349
  C        34.4550777935       25.5620447367        1.4528257822
  C        33.9604980294       24.4598571743        0.6870628603
  C        40.6193129634       17.1262345113        0.7693895134
  C        40.5970939102       17.1249978872        3.5787642963
  C        28.7388705935       14.0635490695        5.8133605297
  C        28.1293383625       12.9189069831        5.0759520604
  C        28.8639092281       12.2174841578        4.1076574853
  C        28.2792876299       11.1643008059        3.4088635457
  C        26.9446960853       10.7843665781        3.6548379707
  C        26.2274038992       11.4718349969        4.6517333548
  C        26.8096731012       12.5268639445        5.3509442913
  C        26.3004662493        9.6960055287        2.8816507925
  C        26.2914978806        9.7094950538        1.4598425159
  C        26.7948992807       10.8154905023        0.7051510185
  C        18.1354305390        3.1809690006       10.3171915043
  C        17.4062058467        4.2782418854       11.0158576799
  C        16.3902623806        3.9999454642       11.9431373164
  C        15.7425524765        5.0399644978       12.6065896866
  C        16.0947582760        6.3836439443       12.3671241740
  C        17.0844500189        6.6531243489       11.4036752479
  C        17.7335178784        5.6157321687       10.7386665054
  C        15.4703710346        7.4913419667       13.1301351206
  C        15.4855761106        7.4906274176       14.5518453460
  C        16.1871917816        6.4970409790       15.3049957760
  C        42.9457751398       31.8595509848       10.0728605940
  C        43.6461802748       30.7718389630       10.8167969323
  C        44.5916395169       31.0932144978       11.8029142974
  C        45.1973802663       30.0877052623       12.5506038273
  C        44.8710518165       28.7346243074       12.3357169878
  C        43.9453405140       28.4202292413       11.3224145482
  C        43.3364796499       29.4253415241       10.5743556873
  C        45.4886686875       27.6553523121       13.1389300701
  C        45.4928455837       27.6809668536       14.5606311063
  C        44.8057697574       28.6890098687       15.3072689850
  C        14.8565352834        8.5630763162       15.2642040141
  C        14.8751238464        8.5631162691       12.4515371945
  C        42.9464065005       31.9616733112        5.8090611050
  C        43.6917009158       30.8855119957        5.0955921874
  C        44.6562530851       31.1914654616        4.1232737600
  C        45.2778198572       30.1719092153        3.4055308595
  C        44.9541580095       28.8215745184        3.6432045105
  C        44.0207088300       28.5238637023        4.6540005697
  C        43.3924139802       29.5406051516        5.3662013129
  C        45.5632034354       27.7241869328        2.8579219018
  C        45.5334606230       27.7174745772        1.4366185246
  C        44.8270679253       28.7076549304        0.6836634529
  C        35.0681761050       26.6530265029        0.7507470783
  C        35.0533604037       26.6214459239        3.5615250565
  C        18.1485683008        3.2469611314        5.7065533359
  C        17.4300853297        4.3438063139        4.9971710021
  C        16.4146581532        4.0525900883        4.0738326445
  C        15.7663763973        5.0832622259        3.3984815438
  C        16.1213126967        6.4284510332        3.6210218719
  C        17.1130057990        6.7117862070        4.5779558119
  C        17.7606524494        5.6828316235        5.2576890778
  C        15.4907473346        7.5241483627        2.8486270026
  C        15.4965946676        7.5075261138        1.4274972697
  C        16.1934037566        6.5058515845        0.6808073821
  H        10.6724418810       12.4657524997        3.9045458720
  H        11.6947070894       10.5509457893        2.6626873195
  H        15.3917223485       11.1686075009        4.7722107076
  H        14.3512671694       13.0713462905        6.0174441399
  H        13.3760941014       11.6311183155        1.2013181009
  H        50.3228807220       22.7483620448        3.9867225123
  H        49.3197672884       24.6228728309        2.6807493690
  H        45.6424354093       24.1614749670        4.8639016411
  H        46.6632995747       22.2904836474        6.1721151400
  H        47.6299224802       23.5759712845        1.2462463209
  H        14.8723888158        8.5883340712        4.6085517594
  H        50.2869532683       22.7024906748       12.0605176638
  H        49.2690144531       24.5753807251       13.3605797164
  H        45.6105903405       24.1095484548       11.1458528378
  H        46.6526813017       22.2542122483        9.8315445599
  H        47.6077848245       23.5518772580       14.7969265281
  H        40.6621989755       17.1587332114       11.4279029768
  H        48.6870771555       14.0949714899        7.7999980188
  H        10.6813340530       12.4665893509       12.0932773925
  H        11.6896516703       10.5246605621       13.2969527670
  H        15.3936471009       11.1590934494       11.2057083158
  H        14.3651403576       13.0874866752        9.9904550260
  H        13.3757632501       11.6221113982       14.7531345854
  H        47.9301802091       14.2183025648        9.7109185291
  H        47.7800963126       14.3738559966        6.4952230124
  H        49.0842565421       18.5528097521       10.8675234019
  H        10.4162998209       14.1342842863        7.9987195177
  H        24.4771865149        3.0324949076        3.9094084076
  H        25.6114128061        4.8948298416        2.6819549952
  H        23.2401996787        7.7558763388        4.8475288001
  H        22.1240673475        5.8840306530        6.0763473745
  H        23.7965284157        5.7987411764        1.2614705444
  H        36.3591853811       32.1934863801        3.9853024870
  H        35.2111515588       30.3766935735        2.7176749396
  H        37.4729528832       27.4388523027        4.8981806232
  H        38.6005900250       29.2688825713        6.1761143994
  H        36.9784020011       29.4583379333        1.2945434006
  H        25.7237397332        8.6166585387        4.6471241839
  H        36.4568345470       32.2574144267       12.1128169988
  H        35.3251794026       30.4561871186       13.4109043324
  H        37.4910873122       27.4920631870       11.1678321010
  H        38.5987655188       29.3057876336        9.8575130524
  H        37.0002387781       29.4832849035       14.8473927987
  H        46.1093090871       26.5876552184       11.3856285035
  H        44.6683016631       35.1162473148        7.8140130966
  H        24.4335029322        3.0411183892       12.0879163691
  H        25.5624845634        4.8828088005       13.3385951563
  H        23.1628291458        7.7681565568       11.2382009784
  H        22.0451060634        5.9146007126        9.9876877633
  H        23.7788705646        5.7978674201       14.8125947107
  H        44.9538656900       34.3903968931        9.6952130715
  H        44.9018817585       34.2068273907        6.4907147224
  H        40.6657454952       33.2088403711       10.8529985902
  H        23.1501154444        1.9581249365        8.0049932389
  H        25.7979414000       19.6596840435        3.9208285415
  H        23.6343604066       19.6939169103        2.6851323831
  H        22.3578958477       16.1930347729        4.8326598460
  H        24.5324016886       16.1660654872        6.0618715978
  H        23.7247556871       17.6712191424        1.2369203610
  H        35.1515346086       15.4437991402        4.0015461735
  H        37.2727249535       15.4066891405        2.6841952960
  H        38.6870081457       18.8165079193        4.8922374793
  H        36.5612171262       18.8343560783        6.2109661803
  H        37.2241379015       17.3854448126        1.2469055003
  H        20.3574658129       17.9563725968        4.6642766238
  H        35.2439942442       15.4243098408       12.0275014385
  H        37.3694325493       15.3882650855       13.3320381926
  H        38.7125496704       18.8893133142       11.2257358393
  H        36.5753400167       18.9155538852        9.9238036702
  H        37.2446036863       17.3938178746       14.7954879830
  H        35.0873601579       26.7165252349       11.4068851484
  H        28.5157439691       21.0832435465        7.9781551006
  H        25.7333865600       19.6596882512       12.1278868406
  H        23.5512918128       19.7114764893       13.3439539849
  H        22.3082178288       16.1663023647       11.2509146026
  H        24.4942616278       16.1302271945       10.0349461218
  H        23.7026961456       17.6689616990       14.7894764658
  H        28.9752826785       21.7200236506        9.7929949906
  H        29.1485503907       21.7436807100        6.6125313019
  H        32.0997195055       18.5485602481       10.9381645434
  H        27.3964503183       19.0710612135        8.0891705725
  H        14.8454230735       19.6462935749       12.1414082476
  H        17.0086092608       19.6926050662       13.3845446181
  H        18.3035917092       16.1915583526       11.2482023425
  H        16.1361341436       16.1605561575       10.0052760309
  H        16.9201892478       17.6898939054       14.8434266245
  H        46.0926495363       15.4575482729       12.0820321025
  H        43.9712262206       15.4193055416       13.3970651616
  H        42.5699494822       18.8511904890       11.2142005329
  H        44.6909377224       18.8635364499        9.8888749926
  H        44.0306371177       17.3627709410       14.8521471753
  H        20.2872773638       17.9261761835       11.4167406392
  H        46.0366251835       15.3881998402        4.0358527711
  H        43.9029381130       15.3322979030        2.7432523988
  H        42.5172406778       18.7897954876        4.8938794206
  H        44.6578857687       18.8328777394        6.1860905768
  H        44.0097841451       17.3304614811        1.3020419074
  H        46.1994933706       26.6828117995        4.6234020726
  H        52.7412105684       21.0626295810        8.1947184388
  H        14.8816761009       19.6697090748        3.8931304153
  H        17.0816370236       19.7372697986        2.7117145756
  H        18.3311940102       16.2188881876        4.8460783430
  H        16.1333827282       16.1753044016        6.0370291330
  H        16.9416700859       17.6984413898        1.2911173617
  H        52.3224258541       21.6732594265        6.2942488999
  H        52.0131743740       21.7020950869        9.4955704641
  H        49.0674379678       18.6077509189        5.2041221862
  H        13.2476355513       19.0160758175        7.9769455645
  H        29.9505483902       12.4468054362       12.2165380656
  H        28.8816374441       10.5155081823       13.3944718563
  H        25.2424195326       11.2055402822       11.2101021593
  H        26.3294420428       13.1241289083       10.0289100432
  H        27.1632313086       11.6748656235       14.7884032925
  H        30.9381685442       22.7628122438       12.1075653294
  H        31.9462687884       24.6687999903       13.3641657340
  H        35.5930586495       24.1968674262       11.1328157858
  H        34.5556503369       22.3142270323        9.8540347358
  H        33.6230080225       23.6029497227       14.7631119990
  H        25.7037183260        8.5949033728       11.4018579341
  H        30.8869790763       22.6925113782        3.9422467208
  H        31.8937453356       24.5696274166        2.6424713889
  H        35.5417463051       24.1499657870        4.8829231386
  H        34.5170340015       22.2810378942        6.1846419352
  H        33.5959469710       23.5810541876        1.2114100543
  H        40.5887970618       17.0839911953        4.6662940453
  H        32.5074751244       14.1464227304        8.2405256431
  H        29.8953759149       12.5070153824        3.9209765133
  H        28.8560389665       10.6173785542        2.6661868805
  H        25.1948337012       11.1907660995        4.8484430657
  H        26.2523122242       13.0739528786        6.1075520842
  H        27.1537603113       11.6920194237        1.2368963590
  H        33.3043595363       14.2294757951        6.4577163907
  H        33.4103981959       14.3994530415        9.5928549532
  H        32.1352142308       18.5232196710        5.1771383670
  H        30.1922817054       14.1493145321        8.0711836918
  H        16.1180086302        2.9634621277       12.1293620371
  H        14.9529303534        4.8206571355       13.3220801302
  H        17.3672321927        7.6859576690       11.2108450441
  H        18.5158267516        5.8183371078       10.0110966378
  H        16.7538494929        5.7397893932       14.7714769253
  H        44.8278274883       32.1403145992       11.9771209364
  H        45.9371871200       30.3415190004       13.3065862370
  H        43.6827424036       27.3781436440       11.1522471124
  H        42.5999373634       29.1899827337        9.8096226782
  H        44.2304085180       29.4367708951       14.7689629780
  H        14.8514910227        8.5464130407       11.3633135378
  H        44.8997055352       32.2341640933        3.9317983384
  H        46.0246905779       30.4131965159        2.6522770098
  H        43.7638247248       27.4841208670        4.8456000901
  H        42.6459601799       29.3177836866        6.1246868546
  H        44.2685839251       29.4705569670        1.2182519751
  H        35.0120632535       26.6315059996        4.6491075415
  H        36.6052200650       35.1340322604        8.1805929957
  H        16.1433988298        3.0130352975        3.9042679444
  H        14.9738961684        4.8565017603        2.6885449747
  H        17.3968539849        7.7472081101        4.7545666773
  H        18.5438249394        5.8932292618        5.9821478358
  H        16.7649411854        5.7556970885        1.2192554443
  H        36.2789428053       34.4820999363        6.2732821622
  H        36.3812198846       34.2089843838        9.4995278165
  H        40.5793243253       33.2017441043        5.1541186295
  H        17.4708307758        1.9471091194        7.9740214144
  H        28.8511641197       18.8055734931       12.3997605369
  H        28.6827669261       18.8246292170        3.9395759788
  H        30.8776736977       15.4669461176        3.7489875028
  H        32.2912569525       16.2626012074       12.3488770508
  H        30.8330311523       15.4791015424       14.3909183528
  H        31.7592361406       16.3790442957        1.4604901427
  H        18.8532718698        0.8689762853       12.3350850879
  H        40.5282014141       35.2290305221        3.9521506894
  H        42.3240462552       34.4191240929        3.5904729839
  H        22.0872896755        0.6922520817       12.3513628950
  H        11.5967158552       18.7128178688       12.3826075117
  H        52.2650175554       18.4309804350        3.6773068863
  H        49.2546332870       16.4771579311        3.5847400254
  H        10.1497681337       15.7981842218       12.2928480505
  H        50.8500403173       17.6925540981        3.9542009471
  H        10.0458609288       17.3944848775       12.0519693621
  H        20.2144536742        0.0020283803       12.0419796521
  H        39.1838406003       36.1244619932        3.6865082082
 Ni        30.2295813382       17.5025737257        2.8338060028
 Ni        30.3171996056       17.3521824296       -0.1666636419
 Ni        29.5460515029       18.9186766363        1.2459551910
 Ni        30.5628872385       17.5001600597       13.3260162663
  O        10.6499443648       14.3651094206        5.4858148786
  O        12.6131562549       14.6574921447        6.5838875987
  O        49.1480005633       16.8458670342        7.9896730932
  O        50.3503228648       20.9358232126        5.6480484734
  O        48.3485781640       20.5933835625        6.6658841858
  O        11.0516623171       17.0538864876        6.5006342460
  O        50.3208807570       20.8816587724       10.4068773011
  O        48.3467245759       20.5867824160        9.3271008392
  O        49.5437184162       18.2484242040       10.0682592884
  O        12.3590496299       18.6246229572        7.9996703240
  O        48.6932451908       14.1485615844        6.7512921230
  O         8.2098611951       14.2103925690        9.3225519327