     566
 i =      172, E =     -4712.2608054896
  C        11.8587068270       14.0535322062        5.7414979093
  C        12.4563158769       12.8907353383        5.0230669218
  C        11.7047066637       12.1717528410        4.0813851900
  C        12.2811582742       11.1095578369        3.3890808109
  C        13.6217338915       10.7397922568        3.6168808165
  C        14.3548494426       11.4434572519        4.5903215262
  C        13.7818784825       12.5084168891        5.2817873042
  C        14.2612406530        9.6490338815        2.8435784630
  C        14.2564943438        9.6568574514        1.4218792623
  C        13.7435162665       10.7590501708        0.6679480882
  C        49.1266221468       21.2332946810        5.8796523819
  C        48.5497816161       22.4011958110        5.1526667196
  C        49.2998084268       23.0684680590        4.1716197931
  C        48.7328667827       24.1075590499        3.4383721152
  C        47.4023256335       24.5092160736        3.6669864053
  C        46.6713871929       23.8603953975        4.6805574409
  C        47.2338342264       22.8155202717        5.4099564273
  C        46.7720986597       25.5868884748        2.8696658986
  C        46.7611735947       25.5573036316        1.4478968066
  C        47.2611891875       24.4422569733        0.7043904758
  C        14.8602471075        8.5703876110        0.7086544174
  C        14.8919058519        8.5970416847        3.5202769689
  C        49.1130380496       21.2033431353       10.1452707532
  C        48.5276867415       22.3648046708       10.8722709039
  C        49.2668342487       23.0252936533       11.8654054979
  C        48.6905589593       24.0598938253       12.5968401763
  C        47.3602406287       24.4569009294       12.3584569928
  C        46.6399489955       23.8122705851       11.3346612865
  C        47.2134521604       22.7763410487       10.6028678326
  C        46.7218040240       25.5318555632       13.1495130922
  C        46.7335132060       25.5281783174       14.5712264615
  C        47.2489549642       24.4289781860       15.3276266223
  C        40.6137312598       17.0555576103       15.2973732362
  C        40.6259096447       17.1148617692       12.4877505785
  C        11.8829504240       14.0864156433       10.2854496533
  C        12.4721159579       12.9104709497       10.9895907008
  C        11.7147502191       12.1776281354       11.9161124114
  C        12.2812923501       11.0951627854       12.5845570536
  C        13.6199359936       10.7209984440       12.3523488562
  C        14.3577014653       11.4361492130       11.3910698023
  C        13.7923191007       12.5173254559       10.7183465618
  C        14.2535859027        9.6242923147       13.1228056913
  C        14.2524646091        9.6443448193       14.5446520742
  C        13.7428566540       10.7534295779       15.2916981473
  C        22.5204297653        3.2479765453        5.7519967693
  C        23.2531977473        4.3486470991        5.0546659343
  C        24.2467058569        4.0554759428        4.1074256771
  C        24.8953251742        5.0843163453        3.4272005555
  C        24.5708121670        6.4342826420        3.6711164215
  C        23.6052423578        6.7187508962        4.6552099359
  C        22.9510238510        5.6910908484        5.3337371299
  C        25.1982746977        7.5315935997        2.8911757163
  C        25.1525413552        7.5313489543        1.4683226788
  C        24.4291326619        6.5442041050        0.7260930817
  C        38.3032232894       31.9268135335        5.8450345402
  C        37.5762810731       30.8372342295        5.1290047702
  C        36.6149794707       31.1420074750        4.1526286270
  C        35.9971071893       30.1237482018        3.4307876549
  C        36.3242826008       28.7727871464        3.6616056831
  C        37.2574714788       28.4755403105        4.6733912321
  C        37.8791063511       29.4924957096        5.3945546559
  C        35.7177455286       27.6814858429        2.8630679443
  C        35.7376014791       27.6994547154        1.4406363816
  C        36.4311516514       28.7075077196        0.6994686457
  C        25.7775230287        8.5974501473        0.7421466473
  C        25.8293884214        8.5933509912        3.5547674709
  C        38.3240768690       31.9618749722       10.1520273568
  C        37.5908795685       30.8892192247       10.8838068070
  C        36.6514552369       31.1992834458       11.8792145009
  C        36.0312343617       30.1819685396       12.6019130553
  C        36.3367798951       28.8287072607       12.3541931115
  C        37.2518755131       28.5284674789       11.3265620936
  C        37.8733333739       29.5423125379       10.6040220089
  C        35.7272194566       27.7305849025       13.1396875794
  C        35.7417740426       27.7253046143       14.5620054678
  C        36.4328459866       28.7201584527       15.3226951822
  C        46.1354489358       26.6207813405       15.2813733000
  C        46.0878383386       26.5802283083       12.4734782297
  C        22.4612538430        3.2576830623       10.2585879813
  C        23.1549558301        4.3682534785       10.9813846125
  C        24.1623022344        4.0849710606       11.9175947467
  C        24.7916539092        5.1164877624       12.6108684578
  C        24.4343398609        6.4624451342       12.3922091818
  C        23.4486921466        6.7389026502       11.4254367009
  C        22.8152435298        5.7075952112       10.7320399351
  C        25.0714744204        7.5606143172       13.1629508779
  C        25.0869128959        7.5466972351       14.5862901015
  C        24.3984673770        6.5509832446       15.3491590803
  C        26.5997151639       17.7513840997        5.6725928553
  C        25.2818480537       17.8210351566        4.9794709002
  C        25.0256537575       18.8214878372        4.0287582644
  C        23.8045950979       18.8568546416        3.3607533156
  C        22.8089160344       17.8931184174        3.6186150702
  C        23.0594487773       16.9196562105        4.6034723366
  C        24.2806335329       16.8812294310        5.2732914447
  C        21.5405646817       17.8840581427        2.8514478137
  C        21.5551711985       17.8677927483        1.4298250580
  C        22.7669559986       17.7270893500        0.6825004615
  C        34.3923508889       17.1438952939        5.8341121929
  C        35.6896272514       17.0688986139        5.1084006546
  C        35.9049503133       16.0935982691        4.1218151408
  C        37.0996676519       16.0707174357        3.4069806990
  C        38.1100841199       17.0205328173        3.6570011848
  C        37.8988209598       17.9704701153        4.6748678804
  C        36.7033558294       17.9994712406        5.3878039553
  C        39.3680096373       17.0354581008        2.8751277899
  C        39.3611209535       17.0542412632        1.4529823044
  C        38.1523312575       17.1773200564        0.6977745331
  C        20.3163878100       17.9067852631        0.7113689315
  C        20.3114023433       17.8874456331        3.5238915856
  C        34.4422503332       17.2435639954       10.1478572203
  C        35.7409155974       17.1565973504       10.8790181862
  C        35.9471454212       16.1688265592       11.8543645670
  C        37.1342127823       16.1342786479       12.5815515885
  C        38.1457113648       17.0889572605       12.3577415669
  C        37.9445215984       18.0537357544       11.3522681784
  C        36.7569842334       18.0912414475       10.6258017357
  C        39.3947563901       17.0930439225       13.1536267480
  C        39.3749189216       17.0842655848       14.5755634733
  C        38.1588599998       17.1911538946       15.3211908935
  C        35.1205720825       26.6424939619       15.2683887073
  C        35.1376929032       26.6578826137       12.4586238322
  C        26.5790211913       17.8263931085       10.2421719352
  C        25.2774540454       17.8588339797       10.9737972530
  C        25.0453924108       18.8248961295       11.9650794627
  C        23.8326624782       18.8501257444       12.6488269213
  C        22.8212931520       17.9095792332       12.3664299952
  C        23.0526114529       16.9642979235       11.3498530170
  C        24.2657910430       16.9360328128       10.6648582259
  C        21.5529273189       17.8988392508       13.1322185798
  C        21.5613559107       17.8741573119       14.5538417039
  C        22.7692545180       17.7289636069       15.3067432751
  C        14.0495812179       17.8350982733       10.2787502093
  C        15.3640369828       17.9053790681       10.9813896926
  C        15.6371332241       18.9270212590       11.9038910922
  C        16.8554840807       18.9550097927       12.5791945920
  C        17.8313178164       17.9634334468       12.3541540940
  C        17.5652352574       16.9690850805       11.3948135945
  C        16.3472420901       16.9375249477       10.7197604633
  C        19.0969763244       17.9373453232       13.1265276465
  C        19.0800844764       17.9229713443       14.5481537774
  C        17.8635013910       17.8336542902       15.2956332482
  C        46.8022120616       17.2159640978       10.1555304809
  C        45.5071152628       17.1456546973       10.8932232551
  C        45.2943827717       16.1533562380       11.8626968232
  C        44.1087599076       16.1254003141       12.5923388008
  C        43.1053428694       17.0900781152       12.3757840000
  C        43.3146562079       18.0616595167       11.3783681898
  C        44.5009047379       18.0928905194       10.6489070089
  C        41.8512406359       17.0923606623       13.1643578106
  C        41.8591380149       17.0777287693       14.5865703146
  C        43.0690446972       17.1697810454       15.3442614984
  C        20.3194514241       17.9111699505       15.2669237300
  C        20.3260113986       17.9101314081       12.4548735592
  C        46.7822810283       17.2311916837        5.8847378108
  C        45.4804407787       17.1184802270        5.1623218797
  C        45.2712032682       16.1147647518        4.2035096426
  C        44.0845481584       16.0726597072        3.4745850914
  C        43.0736299955       17.0309632363        3.6851462947
  C        43.2747505522       18.0067731175        4.6800214965
  C        44.4628782575       18.0550985713        5.4045205567
  C        41.8243752456       17.0335929303        2.8878343819
  C        41.8457379173       17.0459160091        1.4656201104
  C        43.0626896868       17.1540791114        0.7213579894
  C        46.1531760815       26.6371875446        0.7261353642
  C        46.1620823009       26.6559837082        3.5357830760
  C        14.0404477456       17.8241629777        5.6996735752
  C        15.3497827901       17.8823200646        4.9861485303
  C        15.6195309194       18.8988294337        4.0574641577
  C        16.8390008607       18.9278286552        3.3844629731
  C        17.8165116387       17.9389566354        3.6141029097
  C        17.5511689868       16.9463624980        4.5754940200
  C        16.3340787993       16.9171337508        5.2523299834
  C        19.0849618968       17.9171979607        2.8468452043
  C        19.0741561934       17.9122728501        1.4251168550
  C        17.8606898901       17.8276704758        0.6718552419
  C        28.8012621677       14.0929338687       10.3251181947
  C        28.1866964451       12.9284803627       11.0275033088
  C        28.9171031327       12.1894865460       11.9710575767
  C        28.3234328381       11.1179707120       12.6340858855
  C        26.9826361857       10.7601124405       12.3833265415
  C        26.2713268345       11.4840288932       11.4084287404
  C        26.8634676306       12.5543937377       10.7410614229
  C        26.3247224401        9.6753128354       13.1514582852
  C        26.3423546680        9.6872546425       14.5733138975
  C        26.8672517413       10.7902932136       15.3178956870
  C        32.1703060451       21.2402597300       10.0976503759
  C        32.7600851807       22.3957130827       10.8350169290
  C        32.0085952134       23.0627253841       11.8150390264
  C        32.5743543873       24.1019091051       12.5488196795
  C        33.9051496290       24.5042042754       12.3219917126
  C        34.6393862771       23.8524614625       11.3129853623
  C        34.0779711809       22.8065927516       10.5831898138
  C        34.5296783129       25.5850208629       13.1203065118
  C        34.5308179059       25.5559882450       14.5421040267
  C        34.0377444744       24.4352152382       15.2813437197
  C        25.7431571110        8.6053744596       15.2966605212
  C        25.6747817361        8.6283754124       12.4833490625
  C        32.1484125268       21.1301351891        5.7646495348
  C        32.7220167873       22.3134600623        5.0621255962
  C        31.9919353389       22.9659929350        4.0561616201
  C        32.5595530481       24.0229175730        3.3491809100
  C        33.8737932501       24.4531014012        3.6216001140
  C        34.5822739181       23.8174175793        4.6598074684
  C        34.0175896255       22.7595294835        5.3680024628
  C        34.5094289262       25.5412222730        2.8425538778
  C        34.5220517176       25.5323157927        1.4197227328
  C        34.0345617274       24.4236403160        0.6581283047
  C        40.6069064267       17.0398611185        0.7428174800
  C        40.5928498358       17.0443364859        3.5537083813
  C        28.8609473758       14.0953415415        5.7212808014
  C        28.2776750878       12.9321644351        4.9901168776
  C        29.0076809733       12.2287850944        4.0195030637
  C        28.4295879606       11.1488034730        3.3525290117
  C        27.1069258544       10.7438833398        3.6290930230
  C        26.3981783897       11.4334970806        4.6308814761
  C        26.9722007104       12.5119226100        5.2984127087
  C        26.4490913396        9.6499164434        2.8711455260
  C        26.4089941754        9.6727866048        1.4495399601
  C        26.8994065879       10.7835502035        0.6931005209
  C        18.1356998329        3.1809727633       10.3169186204
  C        17.4062517014        4.2782050215       11.0154783156
  C        16.3905608897        3.9996855205       11.9429837163
  C        15.7427056263        5.0395461054       12.6065536843
  C        16.0944853842        6.3833234231       12.3670094785
  C        17.0837946403        6.6530109262       11.4031980903
  C        17.7329964989        5.6157844007       10.7380526969
  C        15.4700430271        7.4909343380       13.1301212219
  C        15.4852771519        7.4902268571       14.5518511966
  C        16.1866393751        6.4965091025       15.3050720261
  C        42.9457553260       31.8596002660       10.0728361983
  C        43.6461614966       30.7719253611       10.8167636942
  C        44.5917939700       31.0932294778       11.8027452895
  C        45.1975101267       30.0876738268       12.5503947135
  C        44.8710012153       28.7346221531       12.3355837332
  C        43.9450558181       28.4202977066       11.3224781061
  C        43.3362238458       29.4254504160       10.5744590651
  C        45.4885899419       27.6553132485       13.1387666570
  C        45.4927418745       27.6809150587       14.5604614777
  C        44.8056049325       28.6889345139       15.3070740429
  C        14.8564043627        8.5627895875       15.2642094738
  C        14.8747402232        8.5627023508       12.4515375870
  C        42.9463482134       31.9615365471        5.8089368290
  C        43.6915297384       30.8853928669        5.0954257766
  C        44.6563088794       31.1912659138        4.1232959914
  C        45.2777737373       30.1716639802        3.4055399111
  C        44.9537434745       28.8213725990        3.6429688082
  C        44.0200313445       28.5237322678        4.6535398238
  C        43.3918131987       29.5405105328        5.3657408116
  C        45.5628001741       27.7239765674        2.8577192137
  C        45.5331466895       27.7173141313        1.4364208680
  C        44.8268369016       28.7075526074        0.6834692145
  C        35.1174060136       26.6299515392        0.7140212544
  C        35.1192766671       26.6020531697        3.5241863814
  C        18.1488081358        3.2468827990        5.7066206489
  C        17.4300368515        4.3437704441        4.9975845577
  C        16.4146036780        4.0524558065        4.0742473379
  C        15.7662628446        5.0830376526        3.3988067758
  C        16.1210377495        6.4282903844        3.6212974768
  C        17.1125806118        6.7117125955        4.5783853525
  C        17.7603297330        5.6828541752        5.2581931635
  C        15.4905710494        7.5239682120        2.8487453941
  C        15.4963215928        7.5072180595        1.4275942245
  C        16.1928517435        6.5053526802        0.6808961406
  H        10.6725654315       12.4658149865        3.9043267778
  H        11.6949157288       10.5509988402        2.6625646343
  H        15.3918889906       11.1689200339        4.7720960145
  H        14.3512853126       13.0716494570        6.0172667122
  H        13.3767762848       11.6313106646        1.2012218722
  H        50.3225286187       22.7484547437        3.9868959597
  H        49.3193652256       24.6227908920        2.6807811086
  H        45.6419086931       24.1612067787        4.8637416256
  H        46.6628332944       22.2903298309        6.1720963980
  H        47.6297662519       23.5758851584        1.2460576921
  H        14.8723178704        8.5883890529        4.6085870311
  H        50.2868013298       22.7022860970       12.0604645040
  H        49.2689380345       24.5751992263       13.3604545846
  H        45.6106581131       24.1097705704       11.1453855223
  H        46.6527101680       22.2544795189        9.8310418645
  H        47.6078135182       23.5518809911       14.7967507867
  H        40.6308918733       17.0963829839       11.3995556352
  H        48.6871544863       14.0951566824        7.8000343650
  H        10.6814174200       12.4669918072       12.0938330778
  H        11.6895752280       10.5250269399       13.2975213861
  H        15.3929888768       11.1579613402       11.2047839802
  H        14.3645859422       13.0863670974        9.9895037900
  H        13.3762194776       11.6221080812       14.7530393672
  H        47.9301595592       14.2187431758        9.7107354001
  H        47.7800162450       14.3742466512        6.4954163389
  H        49.0825805809       18.5520059765       10.8669125580
  H        10.4159868397       14.1343784466        7.9987832496
  H        24.4895946706        3.0130820161        3.9132228441
  H        25.6637502766        4.8498871231        2.6935846597
  H        23.3430221869        7.7558789252        4.8542205524
  H        22.1847378834        5.9083071453        6.0742144743
  H        23.8683636595        5.7895401852        1.2698438884
  H        36.3752666347       32.1853860809        3.9615369184
  H        35.2504551854       30.3668325556        2.6779539861
  H        37.5198203713       27.4362889214        4.8606157545
  H        38.6234828110       29.2675889239        6.1547995143
  H        36.9944741964       29.4608675400        1.2423972786
  H        25.8795118966        8.5728232392        4.6420752136
  H        36.4287261915       32.2438389405       12.0849053586
  H        35.2984485520       30.4285394345       13.3671070661
  H        37.4990334873       27.4877671589       11.1275655404
  H        38.6026403866       29.3148205704        9.8303643046
  H        36.9983292531       29.4828631565       14.7951599450
  H        46.1092554076       26.5876605586       11.3854424849
  H        44.6681765360       35.1160920704        7.8138626851
  H        24.4437982908        3.0474801126       12.0833540315
  H        25.5771223843        4.8881762308       13.3281601736
  H        23.1592788473        7.7725124751       11.2466705324
  H        22.0393992238        5.9198828730       10.0000030744
  H        23.8141227310        5.8015833101       14.8230377679
  H        44.9533083433       34.3903763696        9.6952740647
  H        44.9010037178       34.2065545482        6.4906115155
  H        40.6646214362       33.2085960861       10.8524357043
  H        23.1512701927        1.9579164599        8.0052206000
  H        25.7949907651       19.5631124882        3.8262061119
  H        23.6088347525       19.6357053415        2.6269632734
  H        22.2998810670       16.1685361423        4.8103458240
  H        24.4882459110       16.1156027230        6.0170485730
  H        23.7001322378       17.5850469944        1.2196576114
  H        35.1209072559       15.3677263136        3.9193235261
  H        37.2637524251       15.3100445619        2.6468867246
  H        38.6703736970       18.7111797082        4.8745113643
  H        36.5244377068       18.7493098270        6.1548532506
  H        37.2129476462       17.2952590399        1.2301449737
  H        20.3094335476       17.9194754926        4.6120137586
  H        35.1587219677       15.4436458486       12.0412252522
  H        37.2902950433       15.3624099475       13.3320024897
  H        38.7164782219       18.7994578025       11.1737806100
  H        36.5845499412       18.8541158072        9.8703362118
  H        37.2247429863       17.3198501410       14.7818574254
  H        35.1070051532       26.6836818146       11.3709721499
  H        28.4939641519       21.0286910080        7.6277254702
  H        25.8273089213       19.5492487549       12.1817735032
  H        23.6531797708       19.6076863652       13.4085891246
  H        22.2822041548       16.2292478790       11.1258795923
  H        24.4564003845       16.1959611431        9.8913059723
  H        23.7043541298       17.5880875470       14.7730480857
  H        28.9608564764       21.7413952832        9.5048390290
  H        29.1182220976       21.6605770498        6.2790109798
  H        32.0280407945       18.6019033157       10.9074367735
  H        27.3881524365       19.0143117261        7.9162795133
  H        14.8834165412       19.6916661729       12.0781464645
  H        17.0646052917       19.7497193095       13.2921270850
  H        18.3102999792       16.1972391798       11.2130815346
  H        16.1271759360       16.1565610397        9.9959031985
  H        16.9252702665       17.7374783114       14.7572058128
  H        46.0756041426       15.4175914453       12.0385517747
  H        43.9455456030       15.3484101796       13.3359840477
  H        42.5486392634       18.8149151732       11.2060491654
  H        44.6782178049       18.8574967896        9.8961318955
  H        44.0097318709       17.2873541538       14.8138873584
  H        20.3289736476       17.9501532832       11.3670337492
  H        46.0543545831       15.3799165067        4.0313992621
  H        43.9284360971       15.2915345946        2.7336581786
  H        42.5018124350       18.7533061914        4.8507402521
  H        44.6349854312       18.8276111279        6.1501917378
  H        43.9984786033       17.2591836024        1.2626814572
  H        46.1988739254       26.6825288985        4.6232310249
  H        52.7413414851       21.0627024084        8.1947713265
  H        14.8647698199       19.6622553437        3.8821306296
  H        17.0486424764       19.7223510348        2.6714973489
  H        18.2966467133       16.1752939587        4.7588090624
  H        16.1155521860       16.1401088922        5.9808929381
  H        16.9203264275       17.7261406765        1.2054448859
  H        52.3231913323       21.6736284843        6.2941478598
  H        52.0134773041       21.7024344675        9.4955578943
  H        49.0675418320       18.6075623260        5.2038394482
  H        13.2474432964       19.0161441504        7.9734243908
  H        29.9492490264       12.4688590805       12.1701954191
  H        28.8958348096       10.5438854379       13.3594851477
  H        25.2345331950       11.2223819325       11.2069120637
  H        26.3092028645       13.1305657501       10.0040293140
  H        27.2197735396       11.6644167340       14.7788546622
  H        30.9856876436       22.7414795969       11.9969380091
  H        31.9863406878       24.6169399774       13.3053717825
  H        35.6698620972       24.1517715855       11.1328710694
  H        34.6518327854       22.2800675997        9.8242087072
  H        33.6868751856       23.5630166533       14.7370146079
  H        25.6851738457        8.6156738699       11.3948436338
  H        30.9864247114       22.6191070093        3.8285786037
  H        31.9858699829       24.5280646783        2.5753206996
  H        35.5986135758       24.1381166008        4.8790930317
  H        34.5735724770       22.2477809721        6.1500431291
  H        33.6829929858       23.5407626729        1.1840133874
  H        40.5874599721       17.0081108116        4.6415249994
  H        32.5666697104       14.0600875993        8.3625509560
  H        30.0273856899       12.5389435413        3.8016909968
  H        29.0037047124       10.6034933395        2.6064988496
  H        25.3752410079       11.1373356777        4.8539380268
  H        26.4172053701       13.0579918348        6.0570130433
  H        27.2761116064       11.6528676148        1.2238403130
  H        33.3277045305       14.0753546120        6.4281726955
  H        33.4360186974       14.3935624648        9.6771546273
  H        32.1679323181       18.3691205504        4.9625422591
  H        30.2728815077       14.1297372256        8.0754944985
  H        16.1185840571        2.9631422495       12.1292986344
  H        14.9532538234        4.8199876318       13.3221592143
  H        17.3660865373        7.6859330683       11.2101265006
  H        18.5149041420        5.8185713438       10.0100981990
  H        16.7530318934        5.7390221733       14.7716057798
  H        44.8281375289       32.1403027049       11.9768907655
  H        45.9374321601       30.3414050765       13.3062929208
  H        43.6822193144       27.3782485227       11.1524595691
  H        42.5994858078       29.1901170916        9.8099097882
  H        44.2302360824       29.4366813612       14.7687548526
  H        14.8509433126        8.5459039892       11.3633181194
  H        44.9000649900       32.2339279090        3.9320221073
  H        46.0248324336       30.4128518002        2.6524414043
  H        43.7628516757       27.4840244943        4.8449244407
  H        42.6451356306       29.3177326898        6.1240199965
  H        44.2682683646       29.4704000385        1.2180487798
  H        35.0814012126       26.6135109108        4.6119100232
  H        36.6049857256       35.1340616002        8.1809851817
  H        16.1433910932        3.0128831510        3.9046975730
  H        14.9737995654        4.8561142393        2.6888998731
  H        17.3962095421        7.7471795544        4.7550943525
  H        18.5434392485        5.8933675362        5.9826881092
  H        16.7640882557        5.7549704491        1.2193483544
  H        36.2783695702       34.4823917727        6.2731564950
  H        36.3814187351       34.2091863864        9.4999945412
  H        40.5800660433       33.2026870110        5.1533704795
  H        17.4717453583        1.9475119636        7.9740574356
  H        29.0106423342       19.3121153960       12.2627130700
  H        28.7992114418       18.5208587301        3.6154501979
  H        31.3765917861       15.6983430788       12.5536720604
  H        27.6237923388       17.4999408355       13.7444791283
  H        29.2809303809       15.5352159328       14.3580359046
  H        32.6030510062       17.7417464113        0.8273280258
  H        18.8534737136        0.8688604071       12.3356123786
  H        40.5275660173       35.2292828932        3.9519772854
  H        42.3240594606       34.4186750445        3.5908805226
  H        22.0879928644        0.6917609039       12.3514923539
  H        11.5969430839       18.7129484158       12.3828032579
  H        52.2650343558       18.4319839845        3.6777637748
  H        49.2551988620       16.4768383581        3.5842875168
  H        10.1502864823       15.7983032736       12.2927607672
  H        50.8503895119       17.6926016556        3.9539670942
  H        10.0460951414       17.3946242358       12.0519360832
  H        20.2147912265        0.0021750853       12.0420356712
  H        39.1833490958       36.1245183079        3.6865713732
 Ni        30.3076651406       18.4278627265        1.5880476840
 Ni        30.9025210449       16.7162302836       -0.3337314943
 Ni        29.3751912105       18.4381978368       -0.6633999386
 Ni        29.8872296461       17.3490355125       12.8295227009
  O        10.6499022736       14.3651800727        5.4858062360
  O        12.6131517826       14.6575287416        6.5838405961
  O        49.1476541341       16.8459781158        7.9896413502
  O        50.3500645453       20.9361247722        5.6482058751
  O        48.3484696348       20.5932022675        6.6659681454
  O        11.0517858340       17.0537247341        6.5004200434
  O        50.3208027266       20.8816250534       10.4068215880
  O        48.3466176734       20.5866241798        9.3269802788
  O        49.5434741173       18.2483943143       10.0681776920
  O        12.3589269661       18.6247102219        7.9996529829
  O        48.6931798744       14.1487173315        6.7512732901
  O         8.2098937144       14.2105132070        9.3225175644