     570
 i =      168, E =     -4745.5276006689
  C        11.8587213871       14.0536115213        5.7416036636
  C        12.4561610721       12.8905535643        5.0234375350
  C        11.7043903537       12.1716775899        4.0817824685
  C        12.2806809390       11.1094424660        3.3893969380
  C        13.6212449319       10.7395515696        3.6170875022
  C        14.3544379992       11.4430324377        4.5906082725
  C        13.7816590844       12.5080575557        5.2821489172
  C        14.2607697336        9.6489038535        2.8436301983
  C        14.2560395653        9.6568010103        1.4219162749
  C        13.7427547095       10.7588608637        0.6679985058
  C        49.1266560410       21.2332224856        5.8795862297
  C        48.5498319684       22.4011360052        5.1525225164
  C        49.2998912779       23.0685847811        4.1716385011
  C        48.7329292061       24.1076985479        3.4384331060
  C        47.4023241854       24.5091653004        3.6669523972
  C        46.6713077360       23.8601294650        4.6803072866
  C        47.2337861852       22.8152321217        5.4096532135
  C        46.7720923227       25.5868824988        2.8696932965
  C        46.7610448759       25.5572791329        1.4479349370
  C        47.2608650397       24.4421253735        0.7044593820
  C        14.8600909912        8.5705306197        0.7086282836
  C        14.8916608903        8.5969924582        3.5202489124
  C        49.1130008681       21.2033651254       10.1452936199
  C        48.5275068650       22.3646417898       10.8725433945
  C        49.2667295947       23.0255005501       11.8653606344
  C        48.6903557799       24.0600417032       12.5968072769
  C        47.3598911425       24.4566604911       12.3586268448
  C        46.6394306335       23.8115759085       11.3352568892
  C        47.2130484014       22.7756809358       10.6034948054
  C        46.7214555120       25.5316683551       13.1496257952
  C        46.7331859424       25.5280579255       14.5713277849
  C        47.2485438592       24.4288032202       15.3277005563
  C        40.6173624438       17.1553960757       15.2960953479
  C        40.6312753796       17.1794229991       12.4864859261
  C        11.8829292420       14.0865476472       10.2852448358
  C        12.4721987113       12.9106293856       10.9894121538
  C        11.7147500791       12.1777906043       11.9158672369
  C        12.2812330674       11.0953116458       12.5843474649
  C        13.6199140729       10.7212046572       12.3522946979
  C        14.3577456503       11.4363107205       11.3910215272
  C        13.7924095798       12.5174805698       10.7182423923
  C        14.2535007386        9.6244867535       13.1227778183
  C        14.2522310732        9.6444683152       14.5446337100
  C        13.7422251125       10.7533403411       15.2917384135
  C        22.5082491611        3.2463895271        5.7454057171
  C        23.2108250069        4.3526420321        5.0315545333
  C        24.2060305696        4.0751970285        4.0822639198
  C        24.8251183777        5.1150558822        3.3920274406
  C        24.4657073779        6.4571135857        3.6289087682
  C        23.4953267152        6.7260396670        4.6119525253
  C        22.8722729705        5.6881728514        5.3011686311
  C        25.0701235954        7.5665783730        2.8528766203
  C        25.0494192912        7.5625326175        1.4308278173
  C        24.3580510006        6.5594896503        0.6803357063
  C        38.2956510525       31.9285835479        5.8522644919
  C        37.5460585518       30.8436533992        5.1513052702
  C        36.5847471951       31.1593082701        4.1782773755
  C        35.9444196498       30.1480203135        3.4668462965
  C        36.2482217221       28.7931458114        3.7049043630
  C        37.1786155220       28.4849082629        4.7157980459
  C        37.8237760864       29.4955951105        5.4262496988
  C        35.6275559021       27.7112537547        2.9035029893
  C        35.6780932686       27.7221626472        1.4814723009
  C        36.4043674989       28.7148212397        0.7504916192
  C        25.6685888280        8.6380815340        0.7144404482
  C        25.6628034878        8.6429038893        3.5260317451
  C        38.3311137432       31.9614036326       10.1600426412
  C        37.6149032207       30.8887732624       10.9099879517
  C        36.6804424250       31.1995828447       11.9098553105
  C        36.0696773413       30.1833862610       12.6425052981
  C        36.3785530624       28.8298679451       12.3995256294
  C        37.2947943316       28.5288173213       11.3730259242
  C        37.9072694306       29.5416721842       10.6413660083
  C        35.7594591645       27.7333905114       13.1800470166
  C        35.7457486009       27.7331596698       14.6025634765
  C        36.4340003254       28.7218314240       15.3738088052
  C        46.1352899471       26.6207640257       15.2814485328
  C        46.0875530178       26.5800468825       12.4735592313
  C        22.4628995292        3.2560988031       10.2525921115
  C        23.1611843779        4.3683318197       10.9639343398
  C        24.1744831828        4.0898251745       11.8946790662
  C        24.8042994089        5.1260016437       12.5796042051
  C        24.4392952683        6.4687174593       12.3568976646
  C        23.4501050980        6.7404852150       11.3934909001
  C        22.8167309049        5.7049234141       10.7077592238
  C        25.0622286074        7.5711321145       13.1303511383
  C        25.0451811290        7.5644365020       14.5526110279
  C        24.3539667686        6.5618003067       15.3036814470
  C        26.6470554189       17.9156705971        5.7031905981
  C        25.3428546282       18.0142195514        4.9865547668
  C        25.1031743135       19.0026465297        4.0193497165
  C        23.8760733848       19.0533472125        3.3584797073
  C        22.8578323880       18.1182239632        3.6388959985
  C        23.0957574667       17.1574622720        4.6398193921
  C        24.3197277156       17.1028214845        5.3001950392
  C        21.5805623780       18.1023379306        2.8836143414
  C        21.5775602258       18.0569929131        1.4618079827
  C        22.7819709509       17.9219498613        0.7012800232
  C        34.3769254956       17.2968603483        5.8058217590
  C        35.6855485259       17.2260186440        5.0943736796
  C        35.8912941585       16.2636508915        4.0932072779
  C        37.0888240937       16.2319816258        3.3850351434
  C        38.1112342503       17.1637014304        3.6528919613
  C        37.9096445655       18.1009660125        4.6841210133
  C        36.7113918408       18.1355348875        5.3940646417
  C        39.3699090108       17.1669738856        2.8729151930
  C        39.3641133706       17.1867251804        1.4505325651
  C        38.1580968131       17.3266120756        0.6933901576
  C        20.3290453049       18.0521184972        0.7572752380
  C        20.3572099200       18.0940167220        3.5701802698
  C        34.4715056860       17.2522335898       10.1077211679
  C        35.7650168197       17.1899232733       10.8491495933
  C        35.9632267076       16.2260022000       11.8493612874
  C        37.1416441724       16.2145778518       12.5909579295
  C        38.1531034769       17.1655008083       12.3524917643
  C        37.9590608568       18.1069393187       11.3238011510
  C        36.7780201382       18.1246146609       10.5859171477
  C        39.3998276284       17.1804896410       13.1515083624
  C        39.3794884544       17.1934451163       14.5732352197
  C        38.1648769270       17.3275054400       15.3166289485
  C        35.0952915922       26.6622393550       15.3009550712
  C        35.1764699429       26.6613703371       12.4917779665
  C        26.5678305663       17.8266117370       10.3202729252
  C        25.2516675798       17.8843514694       11.0211737503
  C        24.9847108612       18.9117060934       11.9390681578
  C        23.7659714135       18.9518090938       12.6102533680
  C        22.7854766263       17.9640407379       12.3891701112
  C        23.0468392684       16.9607998761       11.4382056516
  C        24.2657502038       16.9193552092       10.7635560137
  C        21.5224693222       17.9607641986       13.1638989883
  C        21.5475931191       17.9833338690       14.5851157138
  C        22.7675619081       17.8863855401       15.3259136370
  C        14.0450580690       17.8308685600       10.2870011658
  C        15.3486304767       17.8953233289       11.0109929654
  C        15.6027914909       18.9118022975       11.9448380947
  C        16.8112339932       18.9438952199       12.6370898690
  C        17.7982415336       17.9621527026       12.4173073052
  C        17.5483839771       16.9684962282       11.4521349572
  C        16.3394384305       16.9324432879       10.7605864092
  C        19.0672030755       17.9612736790       13.1844867576
  C        19.0669704010       17.9854869530       14.6067532027
  C        17.8618651935       17.8914786796       15.3717631299
  C        46.8031642378       17.2175903260       10.1557639786
  C        45.5087212297       17.1556853668       10.8931855801
  C        45.2916886324       16.1745255026       11.8727651081
  C        44.1061275858       16.1611281549       12.6029371877
  C        43.1085555248       17.1293858357       12.3758520556
  C        43.3215502009       18.0880558199       11.3669921034
  C        44.5073314787       18.1050961984       10.6376020582
  C        41.8556290952       17.1522223456       13.1643604269
  C        41.8632842513       17.1533133090       14.5862298443
  C        43.0740119767       17.2356423688       15.3436301459
  C        20.3142032016       18.0175408782       15.3125363075
  C        20.2897016989       17.9316087290       12.5000324323
  C        46.7830272363       17.2339890420        5.8837249945
  C        45.4809004631       17.1354187477        5.1611424414
  C        45.2592833803       16.1416273734        4.1951162243
  C        44.0718281743       16.1206472437        3.4662630169
  C        43.0736354844       17.0908640395        3.6838528478
  C        43.2864846598       18.0553790311        4.6870904953
  C        44.4746142051       18.0824336917        5.4115083109
  C        41.8256428527       17.1196433340        2.8862404639
  C        41.8480897511       17.1350703170        1.4643604047
  C        43.0668315844       17.2250683075        0.7206517092
  C        46.1531084892       26.6372145953        0.7262058800
  C        46.1622551305       26.6560401784        3.5358517091
  C        14.0487757378       17.8398977037        5.7108340181
  C        15.3716231115       17.9399456546        5.0235396716
  C        15.6243463949       18.9671362733        4.1011455529
  C        16.8509096046       19.0349210585        3.4437825236
  C        17.8555346777       18.0755706020        3.6821667242
  C        17.6097296936       17.0774354789        4.6432968214
  C        16.3843836715       17.0089733274        5.3044876051
  C        19.1220746956       18.0804250858        2.9080035036
  C        19.0953862680       18.0457849353        1.4858887951
  C        17.8758051626       17.9172331128        0.7480298586
  C        28.8096755373       14.0904156385       10.3150325544
  C        28.1908892773       12.9282423625       11.0158346211
  C        28.8985644253       12.2200428166       11.9986320311
  C        28.2967181446       11.1542330501       12.6629454557
  C        26.9716811809       10.7713388762       12.3703778772
  C        26.2855130639       11.4621704004       11.3546400611
  C        26.8849111066       12.5285470744       10.6888637583
  C        26.3010203937        9.6924474111       13.1328843667
  C        26.2766138538        9.7190699199       14.5541959485
  C        26.7649126711       10.8359731933       15.3030207879
  C        32.1771607887       21.2382176857       10.1465172119
  C        32.7736835587       22.4027241524       10.8679369818
  C        32.0173600088       23.0932072408       11.8276224584
  C        32.5830511749       24.1376346653       12.5525878317
  C        33.9225276769       24.5190081888       12.3423105386
  C        34.6628778295       23.8457012582       11.3522230437
  C        34.0983747294       22.7971850151       10.6272136464
  C        34.5450288796       25.5973111699       13.1454805610
  C        34.5108167385       25.5780492934       14.5672465091
  C        33.9819830022       24.4701608748       15.3016966490
  C        25.6705853515        8.6361077621       15.2696594789
  C        25.6757100184        8.6357486366       12.4570225087
  C        31.9725601316       21.2333784997        5.8298988697
  C        32.5383304507       22.3996061013        5.0935157794
  C        31.8171496619       23.0516665528        4.0807471573
  C        32.3999355048       24.0956370379        3.3632770205
  C        33.7170625756       24.5172850363        3.6379497064
  C        34.4158355816       23.8809513620        4.6819834486
  C        33.8393845905       22.8352409072        5.3955575586
  C        34.3756336849       25.5965164574        2.8650305969
  C        34.4221037355       25.5786290366        1.4435682918
  C        33.9372734171       24.4719879939        0.6776039789
  C        40.6096465850       17.1487351887        0.7413413083
  C        40.5942553573       17.1515821972        3.5517534916
  C        28.7151449683       14.0984082063        5.7449231315
  C        28.0999303680       12.9500169741        5.0193178831
  C        28.8221263085       12.2641309361        4.0299129877
  C        28.2376865365       11.2025231506        3.3447157320
  C        26.9158062194       10.7994727458        3.6220373618
  C        26.2120073809       11.4722707666        4.6390140792
  C        26.7936251580       12.5355133263        5.3263049349
  C        26.2719751467        9.7095602569        2.8517116422
  C        26.2629685441        9.7283731550        1.4298247263
  C        26.7562423362       10.8414312963        0.6786524752
  C        18.1355051143        3.1810120180       10.3171194744
  C        17.4061558539        4.2782174748       11.0157627489
  C        16.3904191802        3.9998620752       11.9432685931
  C        15.7426454582        5.0398289393       12.6067440737
  C        16.0945325211        6.3835627535       12.3670843299
  C        17.0839458930        6.6530986870       11.4033553612
  C        17.7330766265        5.6157619624       10.7383255742
  C        15.4701274704        7.4912389441       13.1301134301
  C        15.4854103395        7.4905718886       14.5518278804
  C        16.1871126135        6.4970589305       15.3049919578
  C        42.9457987556       31.8596105161       10.0727972783
  C        43.6461374461       30.7719057229       10.8167142123
  C        44.5915652450       31.0932083906       11.8028952171
  C        45.1972437401       30.0876367726       12.5505463664
  C        44.8709121489       28.7345565642       12.3356072837
  C        43.9452501390       28.4202534899       11.3222187909
  C        43.3364867173       29.4254056222       10.5741497210
  C        45.4884283487       27.6552351272       13.1388221263
  C        45.4926741229       27.6809404410       14.5605186192
  C        44.8057643610       28.6890907477       15.3071672949
  C        14.8563130302        8.5629953042       15.2641876559
  C        14.8747827461        8.5629626867       12.4515121035
  C        42.9464428142       31.9615950933        5.8089434361
  C        43.6916859719       30.8854730716        5.0955483725
  C        44.6562876013       31.1914023103        4.1232488028
  C        45.2778246060       30.1718316280        3.4055212173
  C        44.9540593641       28.8214978265        3.6431306041
  C        44.0206354031       28.5238177459        4.6539719907
  C        43.3923492693       29.5405636376        5.3661567478
  C        45.5630173822       27.7240938904        2.8578251703
  C        45.5333024987       27.7174488132        1.4365233794
  C        44.8270909249       28.7077508937        0.6835612502
  C        35.0555258759       26.6601600036        0.7460929164
  C        34.9918424554       26.6484881317        3.5561731335
  C        18.1485137916        3.2469493095        5.7064501896
  C        17.4299775535        4.3437485349        4.9971569795
  C        16.4146706155        4.0525415052        4.0736656972
  C        15.7663737715        5.0832088509        3.3983284547
  C        16.1211378302        6.4284260817        3.6210278762
  C        17.1126484497        6.7117569204        4.5781643901
  C        17.7603157519        5.6828067301        5.2578726280
  C        15.4905769875        7.5241271759        2.8486328503
  C        15.4964367832        7.5074930573        1.4275000080
  C        16.1933509325        6.5058948630        0.6808053842
  H        10.6722632065       12.4658388989        3.9047825807
  H        11.6943153531       10.5509972757        2.6628879625
  H        15.3914591689       11.1683913277        4.7723271188
  H        14.3511951665       13.0712999858        6.0175115877
  H        13.3756136109       11.6309323126        1.2013096352
  H        50.3226534155       22.7486659732        3.9870060615
  H        49.3194256997       24.6230773784        2.6809425098
  H        45.6417428441       24.1607386233        4.8633377692
  H        46.6627196361       22.2898210174        6.1715910183
  H        47.6292998632       23.5757069091        1.2461513470
  H        14.8720518433        8.5882543414        4.6085571196
  H        50.2868194397       22.7027547509       12.0601929194
  H        49.2687619259       24.5756080367       13.3602242474
  H        45.6099601688       24.1086606378       11.1463037810
  H        46.6521787579       22.2533819798        9.8320557776
  H        47.6071972471       23.5516362816       14.7967973105
  H        40.6365561229       17.1442816820       11.3987310783
  H        48.6867984778       14.0952305025        7.7999802480
  H        10.6813845041       12.4671198323       12.0934826266
  H        11.6894426700       10.5251780274       13.2972591355
  H        15.3930423493       11.1580971682       11.2048112112
  H        14.3646474276       13.0864519740        9.9893184177
  H        13.3753116767       11.6219336296       14.7531258842
  H        47.9301516917       14.2185615069        9.7109614774
  H        47.7797548540       14.3732024732        6.4948853633
  H        49.0827915026       18.5518332042       10.8669851848
  H        10.4158259621       14.1343893143        7.9986437919
  H        24.4744618649        3.0375843959        3.8962681491
  H        25.5983305005        4.8966559588        2.6585655744
  H        23.2075258269        7.7579529886        4.8022354468
  H        22.1031033928        5.8894889862        6.0428629502
  H        23.7998807282        5.7978543703        1.2170636603
  H        36.3643404636       32.2056478810        3.9805361036
  H        35.2010467496       30.3996913553        2.7135391575
  H        37.4224198675       27.4422403182        4.9091253261
  H        38.5675291210       29.2620562349        6.1846242295
  H        36.9680874224       29.4617484743        1.3017551305
  H        25.6974162359        8.6231853360        4.6138799553
  H        36.4518581379       32.2441008914       12.1092716232
  H        35.3379321869       30.4310635051       13.4083122947
  H        37.5474296368       27.4884351591       11.1792030371
  H        38.6351160132       29.3132917690        9.8665532424
  H        37.0210856381       29.4741861046       14.8548000824
  H        46.1089525203       26.5874075785       11.3855229785
  H        44.6683366406       35.1163123297        7.8141139483
  H        24.4581764649        3.0534187829       12.0632703209
  H        25.5928066297        4.9047173678       13.2957472486
  H        23.1577011046        7.7729701640       11.2134069302
  H        22.0367999476        5.9105569920        9.9783245714
  H        23.7921321643        5.8021771059       14.7680570302
  H        44.9539453450       34.3905894648        9.6953393953
  H        44.9024533747       34.2071991967        6.4905435804
  H        40.6666519298       33.2092720158       10.8530957744
  H        23.1499878005        1.9586485131        8.0024524287
  H        25.8885542104       19.7217516578        3.7965088602
  H        23.6941537728       19.8245958136        2.6130777905
  H        22.3220450624       16.4266736912        4.8660516493
  H        24.5136410030       16.3460909997        6.0562265584
  H        23.7243649878       17.8129639670        1.2295924859
  H        35.0945202702       15.5557046986        3.8769641383
  H        37.2462354051       15.4791562612        2.6158016795
  H        38.6912628668       18.8269909782        4.8983121506
  H        36.5412140417       18.8740959346        6.1740231376
  H        37.2208647523       17.4645347221        1.2245468533
  H        20.3666397926       18.1438437419        4.6576554584
  H        35.1744364795       15.5028461708       12.0427145157
  H        37.2924444126       15.4622478246       13.3620356257
  H        38.7318512705       18.8491107322       11.1344236628
  H        36.6094532630       18.8696922458        9.8119736903
  H        37.2332110871       17.4645453840       14.7748174359
  H        35.1674185478       26.6826326961       11.4036611608
  H        28.4824646751       21.1278796126        7.9827321518
  H        25.7454182149       19.6703414309       12.1086245966
  H        23.5588854332       19.7526136427       13.3168848379
  H        22.2984822851       16.1907666861       11.2621979658
  H        24.4832154477       16.1326086098       10.0450608468
  H        23.6982581918       17.7505252493       14.7832396790
  H        29.0208754401       21.7079841220        9.7710055739
  H        29.0879301683       21.8157884520        6.6138318744
  H        32.0780462121       18.5379506911       10.9252767333
  H        27.3366374789       19.0839219601        8.0778984803
  H        14.8428320492       19.6717830015       12.1118513144
  H        17.0064640553       19.7384736282       13.3540384429
  H        18.3007736830       16.2026474225       11.2751579438
  H        16.1338776297       16.1533754205       10.0303063506
  H        16.9191339361       17.7629273983       14.8478625347
  H        46.0693336896       15.4367946653       12.0562708598
  H        43.9385331650       15.3936242112       13.3553720743
  H        42.5589735791       18.8429047504       11.1867551370
  H        44.6889761874       18.8601949987        9.8764471195
  H        44.0162031386       17.3393531562       14.8130882751
  H        20.2808810948       17.9386478400       11.4115537913
  H        46.0329732090       15.3981050329        4.0171166565
  H        43.9052594990       15.3473933598        2.7194065174
  H        42.5231119676       18.8103167610        4.8636315062
  H        44.6567008654       18.8466000533        6.1632083664
  H        44.0035561707       17.3199420962        1.2622237811
  H        46.1991292794       26.6825643918        4.6232970976
  H        52.7409191290       21.0626551421        8.1946071161
  H        14.8484364477       19.7065140346        3.9155666582
  H        17.0427717541       19.8347478936        2.7316789632
  H        18.3759308682       16.3293787414        4.8365102670
  H        16.1820911293       16.2245652073        6.0300015855
  H        16.9437752187       17.8081015831        1.2943970798
  H        52.3218502990       21.6732996641        6.2948038680
  H        52.0129796217       21.7018860731        9.4956417015
  H        49.0676542617       18.6072714456        5.2036693123
  H        13.2473025611       19.0174050654        7.9775969465
  H        29.9174976111       12.5211439528       12.2309767687
  H        28.8500723967       10.6051138302       13.4216036069
  H        25.2614572058       11.1786730350       11.1204319198
  H        26.3500606833       13.0815940885        9.9206746017
  H        27.1230677125       11.7101433704       14.7675759149
  H        30.9891242568       22.7856687357       12.0013164641
  H        31.9896855238       24.6719503866       13.2913247998
  H        35.7001047646       24.1284904690       11.1843185028
  H        34.6765012842       22.2532765677        9.8837204180
  H        33.6356205856       23.5981603773       14.7542719515
  H        25.7135383462        8.6141354181       11.3693009178
  H        30.8018779173       22.7262311924        3.8633192576
  H        31.8333349241       24.6015756065        2.5845151856
  H        35.4344103478       24.1934637044        4.9024858971
  H        34.3875095761       22.3239521066        6.1831315048
  H        33.5565141185       23.6005116349        1.2021112611
  H        40.5873957916       17.1105723561        4.6393698293
  H        32.5346035730       14.1828989740        8.1614706650
  H        29.8411957007       12.5743088496        3.8112209619
  H        28.8055928067       10.6697292239        2.5853148750
  H        25.1892053416       11.1741563752        4.8603180520
  H        26.2458573295       13.0710206950        6.0980945032
  H        27.1081727953       11.7204523914        1.2103816237
  H        33.3332722745       14.3018540354        6.3505991948
  H        33.4058955802       14.3882439367        9.5378450594
  H        31.9929833977       18.5962324085        5.0746904488
  H        30.2458947144       14.1942198960        7.9918659180
  H        16.1183486864        2.9633592980       12.1296513720
  H        14.9531643946        4.8204413745       13.3223684165
  H        17.3664121292        7.6859712490       11.2102738003
  H        18.5151271877        5.8184655566       10.0105047464
  H        16.7538179427        5.7398338238       14.7714870928
  H        44.8278139906       32.1402841730       11.9771632393
  H        45.9370673697       30.3414078322       13.3065249530
  H        43.6827181758       27.3781678130       11.1519471607
  H        42.6001271904       29.1900454730        9.8092456300
  H        44.2305427308       29.4369719037       14.7688837857
  H        14.8510277225        8.5461862731       11.3632906826
  H        44.8998687740       32.2340781425        3.9318243271
  H        46.0247499906       30.4130955619        2.6523139698
  H        43.7637611239       27.4840741774        4.8455818708
  H        42.6459076968       29.3177261542        6.1246446853
  H        44.2687707905       29.4707794474        1.2181374860
  H        34.9333077295       26.6647827922        4.6429329744
  H        36.6052811053       35.1341488457        8.1805653271
  H        16.1434872366        3.0129862909        3.9039834271
  H        14.9739762120        4.8564315005        2.6883036189
  H        17.3962765521        7.7472021816        4.7549900191
  H        18.5433042891        5.8932325305        5.9825247889
  H        16.7649474641        5.7557725636        1.2192348470
  H        36.2788721839       34.4824578946        6.2731365019
  H        36.3812941833       34.2089177387        9.4993208328
  H        40.5792714060       33.2019492812        5.1540094137
  H        17.4710524207        1.9474367140        7.9739574909
  H        29.2320042318       19.3534621058       12.5751369839
  H        30.5567507032       15.4995341730        3.6296975177
  H        31.2867958379       15.5473619419       12.3792022203
  H        28.1436713562       17.7704689537       14.4737753836
  H        29.5078244586       15.4671759634       14.6641397436
  H        30.7509658674       19.9624130320        1.9799835108
  H        28.5415734005       14.9515441549        1.9176749165
  H        32.4132529496       18.7699031963       15.8955432048
  H        18.8528595937        0.8687964282       12.3350823517
  H        40.5282385040       35.2287621103        3.9520567998
  H        42.3244773870       34.4192836820        3.5902873977
  H        22.0877934479        0.6923686127       12.3516158124
  H        11.5967979517       18.7129653209       12.3822736780
  H        52.2646981831       18.4305523446        3.6774206670
  H        49.2552302817       16.4761218553        3.5842879561
  H        10.1506013642       15.7981949569       12.2927740383
  H        50.8496341442       17.6924250320        3.9541275853
  H        10.0463053800       17.3946814633       12.0519592803
  H        20.2141013462        0.0022609681       12.0420175375
  H        39.1839762803       36.1244343369        3.6862887328
 Ni        30.5604870621       17.7482594154        2.8339272551
 Ni        31.4506214099       16.5564548983       -0.4183043046
 Ni        29.9342232376       18.5950055518        0.0012015033
 Ni        30.0579446723       17.3015192644       13.0750166550
  O        10.6499865403       14.3651739408        5.4859009722
  O        12.6132952718       14.6577232865        6.5838783607
  O        49.1477830943       16.8458549022        7.9896202452
  O        50.3501123801       20.9359769831        5.6480226683
  O        48.3485058787       20.5933005633        6.6658920427
  O        11.0514575968       17.0536259330        6.5007314884
  O        50.3208369865       20.8816723114       10.4068061648
  O        48.3466846159       20.5867012388        9.3270063248
  O        49.5436045417       18.2483465935       10.0681410403
  O        12.3593812524       18.6244181871        7.9994152502