     563
 i =      221, E =     -4694.9724799177
  C        11.8583312298       14.0535716029        5.7417059853
  C        12.4559893328       12.8903057036        5.0235273121
  C        11.7044549496       12.1708700990        4.0821701260
  C        12.2809952218       11.1084475169        3.3901912919
  C        13.6216574114       10.7389841024        3.6179583240
  C        14.3547016111       11.4430692271        4.5911302414
  C        13.7815810470       12.5081876205        5.2822781808
  C        14.2615114568        9.6483425504        2.8446630197
  C        14.2567387362        9.6562238989        1.4229391060
  C        13.7433414613       10.7583256282        0.6691434250
  C        49.1264427994       21.2332122047        5.8798309551
  C        48.5494662684       22.4010811899        5.1526628017
  C        49.2997662111       23.0689848465        4.1722688727
  C        48.7328233012       24.1081180133        3.4390570939
  C        47.4020235971       24.5091714762        3.6671493201
  C        46.6707134509       23.8596142333        4.6799507104
  C        47.2331709975       22.8146633204        5.4092731684
  C        46.7718669719       25.5869603558        2.8698763852
  C        46.7610610209       25.5574828061        1.4480839824
  C        47.2610466823       24.4423920116        0.7046401823
  C        14.8607132141        8.5699460613        0.7096052683
  C        14.8927663104        8.5965777688        3.5212158093
  C        49.1128202616       21.2032237587       10.1451659894
  C        48.5273367609       22.3645714654       10.8724761512
  C        49.2667919427       23.0256015221       11.8650073047
  C        48.6905161709       24.0601432389       12.5965546244
  C        47.3599533603       24.4566102505       12.3587050588
  C        46.6392456078       23.8113082522       11.3356436915
  C        47.2127346112       22.7753611006       10.6038225333
  C        46.7216566592       25.5317336687       13.1497083872
  C        46.7334133937       25.5282480472       14.5714417244
  C        47.2488177990       24.4290552005       15.3278616314
  C        40.5859335458       17.0874278241       15.3166496786
  C        40.6028571134       17.1428347556       12.5028567283
  C        11.8825843596       14.0865881614       10.2856491823
  C        12.4720056962       12.9107121689       10.9902904085
  C        11.7144667338       12.1774678161       11.9163385170
  C        12.2810215204       11.0950620835       12.5849981889
  C        13.6198784136       10.7212922271       12.3534488868
  C        14.3579249593       11.4369808121       11.3927793001
  C        13.7925224976       12.5181031331       10.7198836366
  C        14.2534780202        9.6243374550       13.1238294730
  C        14.2524813048        9.6440598194       14.5457078806
  C        13.7426254775       10.7529177569       15.2929020654
  C        22.5225278154        3.2483189000        5.7615097337
  C        23.2603281950        4.3511047029        5.0746875571
  C        24.2754867159        4.0609375498        4.1501013813
  C        24.9305342205        5.0921086856        3.4802195037
  C        24.5891767234        6.4398018304        3.7119743396
  C        23.6013326436        6.7218065052        4.6737841804
  C        22.9419250031        5.6918124406        5.3431555745
  C        25.2199757152        7.5372049306        2.9362238862
  C        25.1894526610        7.5284477383        1.5132900638
  C        24.4758868278        6.5358126273        0.7687346122
  C        38.2975222400       31.9251210494        5.8527238655
  C        37.5573566443       30.8310969282        5.1565938772
  C        36.5873556617       31.1276617171        4.1862624485
  C        35.9616072084       30.1028731620        3.4805855720
  C        36.2896607473       28.7533561012        3.7200885184
  C        37.2275698452       28.4644507144        4.7297374239
  C        37.8570319552       29.4879943259        5.4350299951
  C        35.6885686202       27.6588158599        2.9209699483
  C        35.7271237762       27.6769387681        1.4982087849
  C        36.4343011591       28.6827740587        0.7672662217
  C        25.8197689802        8.5916508485        0.7893331347
  C        25.8378354779        8.6048952624        3.6021510490
  C        38.3311025972       31.9579965470       10.1634179163
  C        37.6195153160       30.8831374072       10.9169153161
  C        36.6890164859       31.1889001044       11.9227219125
  C        36.0839545749       30.1702005518       12.6578619684
  C        36.3925529529       28.8163301861       12.4132700842
  C        37.3048150052       28.5207323813       11.3808317390
  C        37.9118264196       29.5358215710       10.6468274781
  C        35.7799440006       27.7144885513       13.1946948455
  C        35.7730532037       27.7059873764       14.6185344180
  C        36.4555425102       28.6973458142       15.3902262673
  C        46.1355107156       26.6209930241       15.2815308124
  C        46.0877861765       26.5801169136       12.4736213238
  C        22.4653488975        3.2538444875       10.3208225230
  C        23.1775110902        4.3615184594       11.0370021110
  C        24.1902048126        4.0675215620       11.9648731603
  C        24.8412087054        5.0909162581       12.6512903696
  C        24.5023075586        6.4421199599       12.4353258820
  C        23.5111696697        6.7295753605       11.4770778123
  C        22.8562457903        5.7058507093       10.7900342983
  C        25.1563956635        7.5331915425       13.2064162827
  C        25.1570606582        7.5260032551       14.6307546942
  C        24.4585674094        6.5357473677       15.3916259542
  C        26.5755291662       17.7837909034        5.7893830885
  C        25.2746578891       17.8326794854        5.0678624278
  C        25.0321006129       18.8224698557        4.1016631574
  C        23.8236041376       18.8474827671        3.4113442840
  C        22.8237336260       17.8868311443        3.6639669299
  C        23.0620341621       16.9210054226        4.6602260833
  C        24.2726240417       16.8895318399        5.3491818581
  C        21.5566214915       17.8811214399        2.8941562813
  C        21.5632591216       17.8710475621        1.4716398613
  C        22.7702723443       17.7409002133        0.7145619828
  C        34.3410297947       17.1449582897        5.8692710358
  C        35.6323012603       17.0652435308        5.1338946954
  C        35.8253814318       16.1398722880        4.0935088931
  C        37.0215935055       16.1220466032        3.3790354322
  C        38.0649516607       17.0251462039        3.6766879114
  C        37.8733925251       17.9225370748        4.7475342904
  C        36.6775699768       17.9482118811        5.4594193850
  C        39.3266265018       17.0489270252        2.8986625180
  C        39.3268737189       17.0868792003        1.4733940799
  C        38.1257792618       17.2405043325        0.7150875201
  C        20.3191664941       17.9068392867        0.7599214037
  C        20.3306628565       17.8876287601        3.5729954247
  C        34.3506066732       17.2203881011       10.2710601721
  C        35.6614469379       17.1380753204       10.9668385459
  C        35.8882851669       16.1796824358       11.9693871120
  C        37.0949346244       16.1591344328       12.6626452626
  C        38.1126130742       17.0958281272       12.3834802448
  C        37.8928108260       18.0218683602       11.3435838612
  C        36.6856640734       18.0479439526       10.6500404917
  C        39.3689813965       17.1216419954       13.1673439047
  C        39.3484293570       17.1247542012       14.5925378996
  C        38.1359087729       17.2578266408       15.3370795187
  C        35.1376438169       26.6242245651       15.3165796179
  C        35.1977743451       26.6421127773       12.5055820585
  C        26.5577914480       17.8265807491       10.3265024686
  C        25.2450768741       17.8803483742       11.0230871622
  C        25.0035319063       18.8639059390       11.9945760327
  C        23.7875329954       18.8920050434       12.6701206221
  C        22.7878656363       17.9357242708       12.4001591715
  C        23.0250580475       16.9796117295       11.3958130356
  C        24.2404097819       16.9494962783       10.7166555648
  C        21.5258298464       17.9137855145       13.1730235808
  C        21.5470458901       17.8861426924       14.5943510485
  C        22.7621599367       17.7483677042       15.3379708190
  C        14.0458834428       17.8312475763       10.2862165694
  C        15.3516157709       17.8939267134       11.0069916524
  C        15.6077857737       18.9018656558       11.9495337962
  C        16.8172979987       18.9267738272       12.6408942939
  C        17.8034493936       17.9465098576       12.4110320565
  C        17.5528306528       16.9639009980       11.4348714791
  C        16.3428266710       16.9344198183       10.7450932061
  C        19.0704336171       17.9279078721       13.1820752811
  C        19.0652144661       17.9142445221       14.6041107188
  C        17.8551606525       17.8172737660       15.3604473848
  C        46.7966211473       17.2188110467       10.1613804240
  C        45.5003988593       17.1550978292       10.9039966536
  C        45.2884635218       16.1802004619       11.8926340912
  C        44.1018077935       16.1588084826       12.6230989026
  C        43.0881395194       17.1114627898       12.3919775807
  C        43.2979589246       18.0654540560       11.3759642456
  C        44.4856336573       18.0911566981       10.6464849234
  C        41.8299268044       17.1198517198       13.1797295252
  C        41.8334189528       17.1050292434       14.6060749379
  C        43.0387557692       17.1929836744       15.3687905931
  C        20.3101583800       17.9118795782       15.3154294367
  C        20.2955532987       17.9128215023       12.5030815605
  C        46.7760781145       17.2290272365        5.8856242562
  C        45.4668108645       17.1133322891        5.1733645080
  C        45.2505068691       16.1177526601        4.2065336176
  C        44.0572319449       16.0773857490        3.4869767013
  C        43.0402190113       17.0274535873        3.7127802242
  C        43.2474998849       17.9916608503        4.7189792570
  C        44.4429402868       18.0397114961        5.4328295664
  C        41.7884054012       17.0392335143        2.9157306084
  C        41.8124407354       17.0623862081        1.4903689558
  C        43.0285694959       17.1720710097        0.7477440665
  C        46.1531725193       26.6374194903        0.7263019480
  C        46.1618031444       26.6560267070        3.5359720481
  C        14.0409236909       17.8275254491        5.7070440033
  C        15.3572855531       17.8924690697        5.0103279413
  C        15.6355216203       18.9115442632        4.0876509318
  C        16.8623590518       18.9415944722        3.4293413515
  C        17.8354563149       17.9509766824        3.6686698010
  C        17.5632495006       16.9588713110        4.6276264881
  C        16.3390272356       16.9287289358        5.2899988802
  C        19.1019501160       17.9211902859        2.9018518680
  C        19.0819538318       17.9097271503        1.4807362266
  C        17.8632213516       17.8158311162        0.7367236581
  C        28.8247848417       14.1588041631       10.4914122622
  C        28.2593812240       12.9664951024       11.1796331686
  C        29.0013697130       12.2150129334       12.1036921750
  C        28.4246201616       11.1086038131       12.7257246412
  C        27.0933516133       10.7295614413       12.4525366160
  C        26.3758307645       11.4625145394       11.4900536107
  C        26.9481916590       12.5655588362       10.8655866608
  C        26.4313165498        9.6360949189       13.2033125015
  C        26.4197673663        9.6624034663       14.6242822801
  C        26.9180505766       10.7791612897       15.3668774656
  C        32.1809172385       21.2341822469       10.1528397562
  C        32.7778486067       22.3980791760       10.8655188454
  C        32.0336729520       23.0762432029       11.8453164946
  C        32.6085825536       24.1107516020       12.5765062720
  C        33.9435629892       24.5011487964       12.3508369733
  C        34.6683906079       23.8450583182       11.3366951475
  C        34.0975642723       22.8030597064       10.6081105912
  C        34.5739591110       25.5718707751       13.1578594494
  C        34.5533554546       25.5408668584       14.5810577216
  C        34.0419879065       24.4240801184       15.3140082723
  C        25.8072886060        8.5869170148       15.3439774522
  C        25.7828718418        8.5905662078       12.5299642794
  C        32.0670486682       21.1670198360        5.8715703605
  C        32.6574882011       22.3218697530        5.1407599346
  C        31.9392098752       22.9591271154        4.1150087002
  C        32.5189386610       23.9982348190        3.3902495033
  C        33.8320679633       24.4328606844        3.6653735534
  C        34.5302212344       23.8076604026        4.7184733802
  C        33.9569237834       22.7639248778        5.4407909812
  C        34.4760481536       25.5189048059        2.8864918368
  C        34.5028827299       25.5141228275        1.4620274495
  C        34.0178479022       24.4111906540        0.6914010629
  C        40.5747985001       17.0666125942        0.7642331000
  C        40.5537763418       17.0478308865        3.5776833237
  C        28.8273417643       14.1275595446        5.7666928334
  C        28.2528520112       12.9668617358        5.0333452370
  C        28.9865009293       12.2755139527        4.0561134008
  C        28.4202024630       11.1865672463        3.3948898783
  C        27.1038038652       10.7640022983        3.6767889179
  C        26.3901743240       11.4455628718        4.6811948698
  C        26.9538183576       12.5295013880        5.3479479146
  C        26.4584460494        9.6621769268        2.9202239701
  C        26.4339684160        9.6761637650        1.4983389080
  C        26.9221490223       10.7872992958        0.7420281499
  C        18.1350573453        3.1809085290       10.3174249610
  C        17.4056127827        4.2780957262       11.0154559432
  C        16.3904631905        3.9994907141       11.9436258962
  C        15.7427846756        5.0393051395       12.6073891264
  C        16.0940091270        6.3832141086       12.3674642859
  C        17.0825852173        6.6528982386       11.4028551127
  C        17.7317725434        5.6157698645       10.7375613645
  C        15.4698271678        7.4908144268       13.1308255435
  C        15.4853579261        7.4899376855       14.5525702786
  C        16.1869978992        6.4962942127       15.3056397617
  C        42.9459565088       31.8596548826       10.0731155876
  C        43.6466099350       30.7722392931       10.8167749784
  C        44.5915438409       31.0935115786       11.8034798153
  C        45.1972070735       30.0878890890       12.5510363577
  C        44.8713626612       28.7347386519       12.3356177055
  C        43.9461396406       28.4205183340       11.3217806658
  C        43.3373809540       29.4256818857       10.5737659041
  C        45.4887490861       27.6553875612       13.1388505923
  C        45.4928848431       27.6811422620       14.5605605702
  C        44.8056925015       28.6891238852       15.3071580283
  C        14.8565971760        8.5624505579       15.2651219404
  C        14.8745124632        8.5627495581       12.4524270752
  C        42.9463699678       31.9617214458        5.8090682685
  C        43.6914190438       30.8856985278        5.0955630221
  C        44.6558557445       31.1915311780        4.1230345158
  C        45.2772720705       30.1718998338        3.4053233834
  C        44.9536692467       28.8215310465        3.6431216495
  C        44.0203180295       28.5239764015        4.6540841093
  C        43.3921166646       29.5407656368        5.3662623445
  C        45.5626709637       27.7241239789        2.8578889536
  C        45.5331912794       27.7175886368        1.4365711567
  C        44.8268507049       28.7077449548        0.6835645420
  C        35.1129001552       26.6098922670        0.7631498986
  C        35.0824777256       26.5791120309        3.5747598011
  C        18.1511454735        3.2469467375        5.7085373176
  C        17.4325680252        4.3440480631        4.9990776587
  C        16.4176763792        4.0525154599        4.0751716988
  C        15.7691070421        5.0828347754        3.3995193555
  C        16.1229533960        6.4283091557        3.6221895761
  C        17.1139214054        6.7119690709        4.5798666563
  C        17.7618514469        5.6833294965        5.2599331163
  C        15.4919054589        7.5237452646        2.8496285874
  C        15.4972446286        7.5069360144        1.4284334676
  C        16.1936824049        6.5052004119        0.6814710888
  H        10.6722769537       12.4648044062        3.9050413373
  H        11.6947426829       10.5496541294        2.6638568914
  H        15.3918364564       11.1688565212        4.7728480189
  H        14.3509035543       13.0718070436        6.0175263346
  H        13.3762678804       11.6303444639        1.2025887771
  H        50.3226721884       22.7493360930        3.9879492949
  H        49.3194986569       24.6237661742        2.6818840593
  H        45.6409151367       24.1597281132        4.8624811599
  H        46.6618367004       22.2886713663        6.1706174827
  H        47.6295107586       23.5760118564        1.2463837483
  H        14.8732496380        8.5879223024        4.6095293379
  H        50.2869751973       22.7029774886       12.0595768843
  H        49.2690930001       24.5757875555       13.3597941884
  H        45.6096500495       24.1081679574       11.1470200292
  H        46.6516692622       22.2527689923        9.8327169128
  H        47.6075363620       23.5518895470       14.7969887693
  H        40.6094617280       17.1171605536       11.4146126532
  H        48.6863312883       14.0956610019        7.7995411774
  H        10.6809381464       12.4664783697       12.0935667329
  H        11.6890340862       10.5247226053       13.2975841886
  H        15.3934420041       11.1592747583       11.2070549634
  H        14.3649811991       13.0875256381        9.9914802544
  H        13.3756308299       11.6215096189       14.7543348581
  H        47.9295656229       14.2198676383        9.7110700830
  H        47.7800496109       14.3753620294        6.4943573702
  H        49.0809007543       18.5513977364       10.8663694203
  H        10.4149184115       14.1346211725        7.9989907286
  H        24.5295247478        3.0195385665        3.9651315427
  H        25.7155573892        4.8617494346        2.7630611328
  H        23.3263142877        7.7577235412        4.8614117024
  H        22.1586478939        5.9052436419        6.0666905067
  H        23.9110061541        5.7829278498        1.3107580689
  H        36.3482713445       32.1694363683        3.9856116230
  H        35.2112700443       30.3396686635        2.7293582577
  H        37.4903935208       27.4267911116        4.9251171293
  H        38.6068926132       29.2691546152        6.1916360880
  H        36.9925547080       29.4338641671        1.3183918823
  H        25.8761541010        8.5884559387        4.6900182924
  H        36.4579656348       32.2323109487       12.1254398475
  H        35.3557591278       30.4172322928       13.4273129428
  H        37.5593909612       27.4814682974       11.1834258025
  H        38.6358848672       29.3080569012        9.8682316584
  H        37.0310728159       29.4589781512       14.8718802290
  H        46.1091682332       26.5873285096       11.3855813272
  H        44.6673483409       35.1153292089        7.8141739568
  H        24.4590243335        3.0267019039       12.1305312851
  H        25.6290289751        4.8506204192       13.3621466492
  H        23.2335861302        7.7666046204       11.2991000136
  H        22.0771646063        5.9298681922       10.0647659507
  H        23.8795664296        5.7836049936       14.8635554760
  H        44.9575363173       34.3971382181        9.7006252101
  H        44.8966838963       34.2057723253        6.4906170165
  H        40.6644614080       33.2080683381       10.8537510541
  H        23.1547337533        1.9600997660        8.0143901115
  H        25.8006884230       19.5658414426        3.9035586841
  H        23.6397415825       19.6195101715        2.6674278045
  H        22.2998821339       16.1714243330        4.8629640866
  H        24.4685624724       16.1295646440        6.1018146125
  H        23.7095807196       17.6026436961        1.2424416392
  H        35.0231726568       15.4473651417        3.8479360012
  H        37.1618340787       15.3964813650        2.5808383015
  H        38.6631452615       18.6306087395        4.9900885425
  H        36.5230058942       18.6625741177        6.2644811521
  H        37.1870011574       17.3809750046        1.2428860790
  H        20.3338890023       17.9206681604        4.6610474464
  H        35.1023854878       15.4661944982       12.2055249689
  H        37.2622840471       15.4121283227       13.4353354737
  H        38.6659750274       18.7526335925       11.1151733281
  H        36.5041778859       18.7853759674        9.8716684101
  H        37.2046661136       17.4112947338       14.7996886507
  H        35.1805424504       26.6694847464       11.4176335176
  H        28.5094005577       21.0720188261        7.8904740195
  H        25.7845347635       19.5919113694       12.2036145739
  H        23.5977275084       19.6574320944       13.4193861235
  H        22.2602399591       16.2359120164       11.1819770505
  H        24.4398613632       16.1980664926        9.9566006479
  H        23.6952430940       17.6155353579       14.7982386055
  H        28.9595282189       21.7311790757        9.7640517129
  H        29.1707010909       21.7104572011        6.5463398234
  H        32.0864501198       18.5424372081       11.0260246848
  H        27.3685573300       19.0136330447        8.0672493650
  H        14.8481791699       19.6602538807       12.1253674254
  H        17.0129441055       19.7134129124       13.3664710499
  H        18.3050746683       16.1999788335       11.2492342119
  H        16.1362896073       16.1625482110       10.0075368863
  H        16.9135765907       17.7124102180       14.8294197008
  H        46.0714374268       15.4497077300       12.0830651608
  H        43.9457613820       15.3922833381       13.3790795630
  H        42.5298202453       18.8128377041       11.1877268717
  H        44.6560469702       18.8450221561        9.8812074645
  H        43.9821372237       17.3114456867       14.8434774565
  H        20.2920772088       17.9539333682       11.4153280809
  H        46.0342398310       15.3871212461        4.0190317866
  H        43.9011909016       15.3027001839        2.7392511132
  H        42.4735886540       18.7334514245        4.9056172942
  H        44.6154728757       18.8066402371        6.1842486844
  H        43.9642801423       17.2737430329        1.2898334392
  H        46.1984346886       26.6823866027        4.6234308618
  H        52.7411472889       21.0626506722        8.1946100947
  H        14.8811746836       19.6735631655        3.9046103066
  H        17.0803823538       19.7348950559        2.7175827017
  H        18.3073250778       16.1880103654        4.8172323250
  H        16.1114384209       16.1517590850        6.0156593578
  H        16.9276198689       17.7101669579        1.2776294236
  H        52.3225915024       21.6734114319        6.2942911848
  H        52.0135056514       21.7025358406        9.4954746478
  H        49.0650701770       18.6064491117        5.2046921787
  H        13.2470487474       19.0162966587        7.9763936055
  H        30.0257385727       12.5084146528       12.3231099379
  H        29.0011452961       10.5278330891       13.4425028158
  H        25.3469255275       11.1845600507       11.2712541261
  H        26.3863713479       13.1500737196       10.1419193860
  H        27.2681760855       11.6539114808       14.8275884882
  H        31.0070791218       22.7707683167       12.0327999557
  H        32.0243339227       24.6303476068       13.3327661052
  H        35.7009281998       24.1354107903       11.1535690724
  H        34.6677520867       22.2732979958        9.8485527965
  H        33.6920267341       23.5536500007       14.7663732475
  H        25.8063262912        8.5733456857       11.4416491666
  H        30.9328070565       22.6153977604        3.8857316544
  H        31.9514664011       24.4886364190        2.6023652657
  H        35.5463413684       24.1270828130        4.9406156496
  H        34.5082797173       22.2641489920        6.2338395249
  H        33.6502718533       23.5300432020        1.2096587669
  H        40.5477028195       16.9979357069        4.6651042282
  H        32.5243764965       14.0959156613        8.3309370949
  H        29.9990382281       12.6012307089        3.8281490587
  H        28.9985846560       10.6487881373        2.6468360817
  H        25.3712038177       11.1382215182        4.9071444051
  H        26.3945050886       13.0673339583        6.1092409772
  H        27.2736932487       11.6689455111        1.2696248442
  H        33.2323499094       14.0454471034        6.4778490650
  H        33.4033255060       14.3600297962        9.7069777235
  H        32.1094641799       18.4698551198        5.1250424304
  H        30.2146827851       14.1227870640        8.1645969808
  H        16.1187652633        2.9629467812       12.1303536489
  H        14.9537953246        4.8196402073       13.3234714749
  H        17.3643338014        7.6858718214       11.2092747179
  H        18.5132710264        5.8188070874       10.0092612383
  H        16.7532952577        5.7387921641       14.7720972075
  H        44.8273370725       32.1405804027       11.9783569501
  H        45.9365957000       30.3416017490       13.3074547795
  H        43.6838649652       27.3784241367       11.1511678102
  H        42.6012349694       29.1902520613        9.8086764481
  H        44.2301501054       29.4367724400       14.7688964556
  H        14.8505537492        8.5461175953       11.3642056178
  H        44.8993506383       32.2341834084        3.9313973345
  H        46.0240162048       30.4130419695        2.6519027707
  H        43.7633801096       27.4842606313        4.8457664253
  H        42.6456879428       29.3179017764        6.1247574131
  H        44.2680798803       29.4705050891        1.2180531220
  H        35.0343320211       26.5901328444        4.6621290068
  H        36.6058188477       35.1346855827        8.1800925193
  H        16.1468901358        3.0128747414        3.9054091413
  H        14.9769871106        4.8554738505        2.6893656978
  H        17.3967571525        7.7475741003        4.7570561389
  H        18.5441637662        5.8942659086        5.9851676791
  H        16.7651706774        5.7548557106        1.2197060997
  H        36.2823209773       34.4810196981        6.2740461178
  H        36.3801325285       34.2094127703        9.4990605565
  H        40.5791123555       33.2039274928        5.1550111089
  H        17.4796097595        1.9487532075        7.9760338723
  H        30.1259709157       19.8252600610       12.4163802731
  H        28.6824168034       18.7714383273        3.8418743485
  H        27.8367729450       19.8318623527       14.7999595512
  H        29.8863259859       15.8861187025       14.3544442360
  H        32.6073406012       17.4012677738        1.7664955376
  H        18.8523947678        0.8687210051       12.3353466246
  H        40.5282603660       35.2293992167        3.9520021084
  H        42.3250626715       34.4184140307        3.5934997661
  H        22.0836846038        0.6946901409       12.3473793303
  H        11.5970087367       18.7124377985       12.3818495231
  H        52.2652119286       18.4313437936        3.6782051716
  H        49.2545854547       16.4776489243        3.5849896972
  H        10.1503619516       15.7983605875       12.2922130894
  H        50.8502150433       17.6928598937        3.9541182466
  H        10.0458596966       17.3949268994       12.0518406221
  H        20.2121716366       -0.0005661028       12.0439295484
  H        39.1832791765       36.1241065838        3.6861696364
 Ni        30.3497622889       18.0103854710        2.4157729408
 Ni        30.8993664720       16.8733732616        0.3287783652
 Ni        29.4232251916       18.7468116733        0.3296408779
 Ni        29.5513935780       18.2826110464       14.0785538690
  O        10.6496933797       14.3651716364        5.4857153244
  O        12.6129970819       14.6573573255        6.5838992572
  O        49.1470582653       16.8459194660        7.9895968760
  O        50.3499851231       20.9363415290        5.6482657286
  O        48.3483297029       20.5931762700        6.6659976349
  O        11.0509146023       17.0539275747        6.5005305626
  O        50.3206604070       20.8817009337       10.4068325815
  O        48.3465843365       20.5865493343        9.3269225148
  O        49.5431173124       18.2484089078       10.0681291191
  O        12.3585693474       18.6246786196        7.9998041425
  O        48.6929042518       14.1489509970        6.7510280624
  O         8.2094318705       14.2108164180        9.3228877933
  O        10.7350450547       14.5067040044       10.6644085725