     566
 i =      114, E =     -4712.2403434878
  C        11.8588229420       14.0534192166        5.7415583342
  C        12.4562596936       12.8905067235        5.0232686318
  C        11.7046198104       12.1717125599        4.0814549167
  C        12.2809663579       11.1094865865        3.3891284781
  C        13.6214742741       10.7394976859        3.6169997584
  C        14.3545845236       11.4429456406        4.5906091652
  C        13.7817242152       12.5079331795        5.2821190622
  C        14.2609149827        9.6487710763        2.8436179404
  C        14.2561086101        9.6566515693        1.4219161125
  C        13.7431017047       10.7588425945        0.6680004171
  C        49.1266926569       21.2333785110        5.8798019118
  C        48.5498598727       22.4012498727        5.1527212786
  C        49.2997580025       23.0683123784        4.1714442021
  C        48.7328038934       24.1073945551        3.4381900132
  C        47.4023635314       24.5092636516        3.6670181525
  C        46.6715817400       23.8607061912        4.6808776560
  C        47.2340619406       22.8158699012        5.4102963473
  C        46.7720822839       25.5868925585        2.8697062299
  C        46.7611169862       25.5572952182        1.4479417321
  C        47.2611723616       24.4422843789        0.7044046847
  C        14.8598737972        8.5702218241        0.7086411983
  C        14.8916786220        8.5968003539        3.5202548207
  C        49.1131295487       21.2035359093       10.1454324657
  C        48.5278464052       22.3650201033       10.8723838343
  C        49.2669809207       23.0254855292       11.8655468051
  C        48.6906924879       24.0600805667       12.5969736131
  C        47.3604109896       24.4571569569       12.3584692614
  C        46.6401727412       23.8126002852       11.3345890963
  C        47.2136797144       22.7766625678       10.6028244427
  C        46.7218742461       25.5320044670       13.1495645471
  C        46.7334972443       25.5282493783       14.5712710610
  C        47.2489889736       24.4290546145       15.3276421279
  C        40.6206127864       17.0749453238       15.2906031664
  C        40.6143324371       17.0683010808       12.4805877451
  C        11.8829903377       14.0863639538       10.2855555641
  C        12.4721194775       12.9105023078       10.9896973764
  C        11.7146235469       12.1775230675       11.9160168183
  C        12.2811248995       11.0950245285       12.5844150415
  C        13.6198463165       10.7210062074       12.3524101804
  C        14.3577492839       11.4363085514       11.3913474188
  C        13.7924210239       12.5175222855       10.7186544840
  C        14.2533773787        9.6242301772       13.1228321950
  C        14.2521005189        9.6442208120       14.5446728160
  C        13.7424600721       10.7532749385       15.2917463320
  C        22.5115719849        3.2456393001        5.7510428177
  C        23.2241757702        4.3509390024        5.0476874753
  C        24.2209285816        4.0703018281        4.1011945286
  C        24.8475466738        5.1087923589        3.4167463883
  C        24.4936062392        6.4515568882        3.6572092648
  C        23.5241793230        6.7236675596        4.6400891252
  C        22.8932787747        5.6869521564        5.3234458515
  C        25.1021307367        7.5569961879        2.8806859274
  C        25.0856041142        7.5456854089        1.4585675347
  C        24.3881854203        6.5446357192        0.7103844424
  C        38.2988046432       31.9261872076        5.8484298863
  C        37.5595556424       30.8375985604        5.1414524946
  C        36.5957364620       31.1458253066        4.1683699528
  C        35.9648742931       30.1298655584        3.4544713733
  C        36.2805758707       28.7767472527        3.6890464985
  C        37.2153045859       28.4760118549        4.6984016922
  C        37.8503188512       29.4910640605        5.4117509301
  C        35.6650216953       27.6895518146        2.8899707277
  C        35.7005397874       27.7041703609        1.4675605248
  C        36.4147406297       28.7025493964        0.7328838665
  C        25.7142047137        8.6132388392        0.7391956236
  C        25.6929948347        8.6358917700        3.5513665528
  C        38.3281360963       31.9609371712       10.1580854989
  C        37.6051832232       30.8883497949       10.9020514585
  C        36.6731260248       31.1988294282       11.9044918173
  C        36.0578338371       30.1823506825       12.6331887334
  C        36.3590072089       28.8280304104       12.3842283253
  C        37.2705152633       28.5276013616       11.3530728437
  C        37.8879208730       29.5406863585       10.6255185927
  C        35.7411217024       27.7307322042       13.1656934540
  C        35.7393135961       27.7255089890       14.5883964927
  C        36.4322481496       28.7135223400       15.3560666195
  C        46.1353257228       26.6207764889       15.2814386531
  C        46.0878315396       26.5803385630       12.4735472101
  C        22.4642421181        3.2555356599       10.2557959205
  C        23.1668635140        4.3620413239       10.9739177888
  C        24.1740722569        4.0714513323       11.9080073660
  C        24.8105776237        5.0985531891       12.6006870058
  C        24.4601164136        6.4458401434       12.3821096612
  C        23.4763856372        6.7297606056       11.4159613545
  C        22.8353592421        5.7029023609       10.7234634896
  C        25.0960788731        7.5410341251       13.1565662075
  C        25.0833698884        7.5367092685       14.5791476938
  C        24.3848283414        6.5418526928       15.3335548037
  C        26.5783591843       17.7887542277        5.7493677992
  C        25.2721815953       17.8631340660        5.0376923952
  C        25.0315353532       18.8569002672        4.0762210757
  C        23.8172626275       18.8935505991        3.3956589349
  C        22.8137125639       17.9377109421        3.6518890451
  C        23.0496267709       16.9704484573        4.6469227322
  C        24.2632747504       16.9306401677        5.3289754406
  C        21.5471431453       17.9305663338        2.8822981887
  C        21.5564815722       17.9134392152        1.4602944889
  C        22.7655942670       17.7802385830        0.7072475231
  C        34.4758110047       17.2598449716        5.9281498812
  C        35.7678211610       17.2064435553        5.1827458476
  C        35.9703899981       16.2175780849        4.2068093532
  C        37.1450671655       16.1955416216        3.4611357822
  C        38.1495337479       17.1600769403        3.6713020990
  C        37.9502294157       18.1298178294        4.6724638057
  C        36.7718974076       18.1579861277        5.4158059970
  C        39.3974929225       17.1534226979        2.8748076585
  C        39.3813700155       17.1352038988        1.4533655249
  C        38.1679131354       17.2415238651        0.7040067872
  C        20.3139993632       17.9422159544        0.7462225636
  C        20.3202319765       17.9321334062        3.5589735618
  C        34.3829974497       17.2156040977       10.2571172986
  C        35.6950461897       17.1083765460       10.9575988111
  C        35.9177874771       16.1257599225       11.9342413704
  C        37.1216728013       16.0908625639       12.6332312014
  C        38.1316812832       17.0387886688       12.3768013598
  C        37.9171757959       17.9905977810       11.3624450486
  C        36.7139390899       18.0287305339       10.6644893698
  C        39.3888984482       17.0581394950       13.1566646743
  C        39.3773567501       17.0866079992       14.5777251397
  C        38.1658861476       17.2162038524       15.3276746956
  C        35.0976958667       26.6503902400       15.2892868082
  C        35.1521066343       26.6608490373       12.4793700628
  C        26.5762473213       17.8280874082       10.3198766435
  C        25.2652316711       17.8711528027       11.0320732780
  C        25.0089464156       18.8697562026       11.9838814982
  C        23.7899344043       18.8995037813       12.6553726606
  C        22.7990022107       17.9313138432       12.3974508342
  C        23.0516076281       16.9561038352       11.4158869762
  C        24.2713642821       16.9235017234       10.7434680160
  C        21.5315865061       17.9191644854       13.1628184003
  C        21.5473845215       17.9060147385       14.5839194761
  C        22.7606717898       17.7763849084       15.3311750066
  C        14.0472330059       17.8327532185       10.2835238611
  C        15.3552889606       17.8991664031       10.9983195033
  C        15.6169007816       18.9153920360       11.9302676863
  C        16.8287799223       18.9432776555       12.6169598569
  C        17.8107341908       17.9573748328       12.3934907655
  C        17.5552600577       16.9670610709       11.4266288379
  C        16.3431887145       16.9350521770       10.7408480482
  C        19.0767368785       17.9402179164       13.1653139180
  C        19.0665545846       17.9363450439       14.5871897615
  C        17.8542602561       17.8438171297       15.3407980164
  C        46.8000300455       17.2115602726       10.1504763934
  C        45.4996139317       17.1300597605       10.8780171333
  C        45.2935296367       16.1418161982       11.8530707612
  C        44.1063497664       16.1071067181       12.5797663813
  C        43.0943619669       17.0603995884       12.3538234238
  C        43.2947006267       18.0240537603       11.3468847959
  C        44.4832316380       18.0628424873       10.6211651289
  C        41.8442009405       17.0655284185       13.1490317471
  C        41.8614184358       17.0796938052       14.5712064722
  C        43.0765486740       17.1841349242       15.3188600244
  C        20.3090254471       17.9382027269       15.3018885389
  C        20.3035554438       17.9155259272       12.4892130170
  C        46.7889574529       17.2357380160        5.8826077671
  C        45.4935814289       17.1407822956        5.1514898926
  C        45.2787835488       16.1451926554        4.1863631782
  C        44.0965495608       16.1243909109        3.4505014851
  C        43.0998995046       17.0967116917        3.6626526911
  C        43.3075066779       18.0658934412        4.6620703010
  C        44.4904505155       18.0925358444        5.3933721018
  C        41.8515085741       17.1154572371        2.8695880907
  C        41.8652244631       17.1042384376        1.4484193722
  C        43.0784395315       17.1920773991        0.6956598643
  C        46.1530380298       26.6371453138        0.7261993848
  C        46.1621011508       26.6560052190        3.5358334734
  C        14.0401207742       17.8288243113        5.7055864001
  C        15.3536392555       17.8988694321        5.0045410135
  C        15.6228237135       18.9216977127        4.0830829887
  C        16.8465396873       18.9601277495        3.4196171554
  C        17.8259797379       17.9745641125        3.6529776193
  C        17.5621991814       16.9774902929        4.6093409206
  C        16.3408596695       16.9388537585        5.2768753828
  C        19.0925586850       17.9561576171        2.8856281208
  C        19.0750789389       17.9438152893        1.4643702485
  C        17.8584886043       17.8468050674        0.7171878604
  C        28.8118196389       14.0855793821       10.3614542465
  C        28.2151793087       12.9067067810       11.0501848146
  C        28.9443154182       12.1776452232       12.0011118476
  C        28.3528434453       11.1018576652       12.6592663484
  C        27.0193090660       10.7317413421       12.3908534450
  C        26.3129699925       11.4416175247       11.4029350766
  C        26.9011900428       12.5173584110       10.7434304745
  C        26.3532661879        9.6514663883       13.1551942496
  C        26.3341932478        9.6803165825       14.5762814918
  C        26.8341636274       10.7948730751       15.3215451767
  C        32.1628348061       21.2745487130       10.0705804844
  C        32.7547449435       22.4275053928       10.8122340889
  C        31.9961285209       23.1043529838       11.7802051566
  C        32.5631274656       24.1335244374       12.5274159324
  C        33.9030170075       24.5186871386       12.3258026603
  C        34.6452021564       23.8582700235       11.3278231587
  C        34.0827121507       22.8208111960       10.5860861551
  C        34.5265031399       25.5937770560       13.1344828003
  C        34.5058590479       25.5687700573       14.5567271854
  C        33.9866830711       24.4573691680       15.2924916171
  C        25.7187854511        8.6046116882       15.2943141163
  C        25.7171205209        8.6003205661       12.4814289102
  C        32.0877239549       21.1679269393        5.8334299821
  C        32.6454043680       22.3470479325        5.1074727814
  C        31.9161887545       22.9812918583        4.0893108566
  C        32.4811450664       24.0329689170        3.3696509375
  C        33.7917563376       24.4761286468        3.6407562363
  C        34.4995567638       23.8556979285        4.6891352464
  C        33.9382441726       22.8051269652        5.4095715509
  C        34.4321701488       25.5615464444        2.8596471818
  C        34.4581629288       25.5515904644        1.4363976201
  C        33.9644790568       24.4491209340        0.6693873456
  C        40.6219602574       17.0938105382        0.7352500747
  C        40.6260160270       17.1590038526        3.5439463301
  C        28.7216354063       14.0974270807        5.7790182163
  C        28.1164334812       12.9468793977        5.0471253332
  C        28.8607625954       12.2315889282        4.0961568090
  C        28.2835718894       11.1677862161        3.4073406309
  C        26.9461739194       10.7915184957        3.6441766346
  C        26.2193771629       11.4922319063        4.6249826767
  C        26.7949297237       12.5562851646        5.3164733639
  C        26.3097278243        9.6958371415        2.8739546313
  C        26.3129710913        9.7033916088        1.4520105035
  C        26.8213357054       10.8071980736        0.6974336080
  C        18.1354651732        3.1809304479       10.3171076336
  C        17.4059830579        4.2781195434       11.0156520955
  C        16.3900512185        3.9996117721       11.9428928788
  C        15.7421853595        5.0394917351       12.6064157487
  C        16.0941754617        6.3832378710       12.3670220841
  C        17.0837771862        6.6529216659       11.4035295423
  C        17.7330036183        5.6156754403       10.7384432411
  C        15.4697199963        7.4908477049       13.1301137767
  C        15.4849294666        7.4901249766       14.5518332530
  C        16.1863890430        6.4964389233       15.3049949173
  C        42.9456286500       31.8595241693       10.0727639860
  C        43.6459438177       30.7717984620       10.8167805861
  C        44.5915088891       31.0931608021       11.8027933100
  C        45.1972152331       30.0876467274       12.5505029221
  C        44.8707680713       28.7345939396       12.3356749916
  C        43.9449021154       28.4202088138       11.3225211756
  C        43.3360700001       29.4253261550       10.5744499716
  C        45.4884226634       27.6553210391       13.1388485349
  C        45.4925174041       27.6808611014       14.5605435394
  C        44.8053385316       28.6888402379       15.3071747048
  C        14.8560351790        8.5626581826       15.2642058271
  C        14.8745249201        8.5626615105       12.4515313366
  C        42.9463099194       31.9615809481        5.8089814981
  C        43.6914757948       30.8853765867        5.0954540747
  C        44.6562324979       31.1912571063        4.1233198419
  C        45.2776940408       30.1716558916        3.4055507738
  C        44.9537124114       28.8213736280        3.6430556587
  C        44.0200551884       28.5237284682        4.6536676280
  C        43.3918427986       29.5405118348        5.3658745289
  C        45.5627297850       27.7239587346        2.8577961215
  C        45.5329809849       27.7172469195        1.4364998454
  C        44.8265970166       28.7074501983        0.6835702980
  C        35.0755617927       26.6408962243        0.7354287948
  C        35.0468512620       26.6181972049        3.5457518990
  C        18.1485759688        3.2467783836        5.7066378985
  C        17.4298937491        4.3435950237        4.9973543412
  C        16.4145062093        4.0522851543        4.0739938679
  C        15.7661298010        5.0828837345        3.3986064983
  C        16.1209258742        6.4281189251        3.6211137205
  C        17.1125259929        6.7115503875        4.5781255743
  C        17.7602561775        5.6826696705        5.2578941103
  C        15.4903631630        7.5237903284        2.8486598032
  C        15.4960659772        7.5070908818        1.4275188774
  C        16.1926553230        6.5052769184        0.6808109230
  H        10.6725446548       12.4659482048        3.9043185969
  H        11.6947208067       10.5510785053        2.6625007883
  H        15.3915667596       11.1682419072        4.7724563378
  H        14.3511769102       13.0709899459        6.0176940175
  H        13.3763701309       11.6310985871        1.2012854400
  H        50.3224009286       22.7481486162        3.9865567509
  H        49.3192323971       24.6224956209        2.6804557071
  H        45.6422318318       24.1617987652        4.8643275550
  H        46.6632396077       22.2909844614        6.1727765528
  H        47.6298135978       23.5759233009        1.2460425064
  H        14.8721606780        8.5881064227        4.6085644364
  H        50.2869160075       22.7024109096       12.0606736464
  H        49.2690373203       24.5753505584       13.3606382896
  H        45.6109274576       24.1101992357       11.1452235478
  H        46.6529692894       22.2547797570        9.8309936825
  H        47.6079529043       23.5520159578       14.7967416988
  H        40.6114288430       17.0268618142       11.3929816929
  H        48.6873001091       14.0950500854        7.8001772654
  H        10.6812393220       12.4667930662       12.0935757016
  H        11.6893685113       10.5247813058       13.2972594728
  H        15.3931173195       11.1582656027       11.2052913536
  H        14.3648127340       13.0867174311        9.9900298210
  H        13.3758737277       11.6219970627       14.7531214023
  H        47.9303405472       14.2188174605        9.7109463899
  H        47.7800065745       14.3738383790        6.4957134598
  H        49.0819446255       18.5514956358       10.8668977370
  H        10.4162242416       14.1342683086        7.9989594233
  H        24.4830701648        3.0316184772        3.9124243284
  H        25.6212047264        4.8893325139        2.6841275703
  H        23.2421654292        7.7566657638        4.8330699465
  H        22.1234000169        5.8892372910        6.0641140892
  H        23.8235697715        5.7890616438        1.2488213931
  H        36.3645649233       32.1903412962        3.9730036798
  H        35.2182441284       30.3767115934        2.7027860927
  H        37.4693514987       27.4353844082        4.8895597641
  H        38.5961218275       29.2622812168        6.1695285383
  H        36.9806207795       29.4500806741        1.2811108064
  H        25.7193244965        8.6237479893        4.6395298242
  H        36.4504584317       32.2434927646       12.1098320086
  H        35.3291905664       30.4307821097       13.4017161198
  H        37.5167774719       27.4868581350       11.1530464218
  H        38.6127045521       29.3115280078        9.8480462188
  H        37.0126203196       29.4689915202       14.8342100962
  H        46.1093269306       26.5878711947       11.3855139357
  H        44.6681603459       35.1161297436        7.8140556305
  H        24.4484317648        3.0319725747       12.0728966306
  H        25.5944835699        4.8660495536       13.3183551510
  H        23.1943298903        7.7655481836       11.2382251154
  H        22.0600251102        5.9195620555        9.9921863146
  H        23.8170271401        5.7847683327       14.8005074301
  H        44.9534779744       34.3899855932        9.6948468445
  H        44.9014429937       34.2067590989        6.4906160711
  H        40.6654163525       33.2087401050       10.8527628579
  H        23.1505551149        1.9578303552        8.0042363655
  H        25.8049156843       19.5949748756        3.8760407443
  H        23.6324048346       19.6689384248        2.6554414791
  H        22.2836706187       16.2255385791        4.8525357045
  H        24.4596344874       16.1706507917        6.0815335449
  H        23.7029599257       17.6471654424        1.2394827713
  H        35.1890641352       15.4791975228        4.0421909620
  H        37.3012868536       15.4217221165        2.7126837114
  H        38.7179247012       18.8829025510        4.8381402020
  H        36.6009774038       18.9216817363        6.1711469802
  H        37.2330936439       17.3758425279        1.2406777435
  H        20.3213458966       17.9665676452        4.6469828373
  H        35.1334603737       15.4016445811       12.1421183217
  H        37.2922104809       15.3260862570       13.3878005474
  H        38.6908581615       18.7276267578       11.1574187743
  H        36.5284352000       18.7816351573        9.9022474255
  H        37.2289837499       17.3315613005       14.7905483426
  H        35.1343965537       26.6853500539       11.3914090054
  H        28.4992669674       21.0655731089        7.7842765035
  H        25.7762925971       19.6161169354       12.1774717330
  H        23.5899522478       19.6782791206       13.3881334137
  H        22.2946947148       16.2012687260       11.2128251221
  H        24.4827180220       16.1597962181        9.9988972250
  H        23.6939774780       17.6412523277       14.7928577858
  H        28.9961158867       21.7251397314        9.6428639771
  H        29.1950415321       21.6934011185        6.4653653026
  H        32.0165455843       18.6457352254       10.9198473904
  H        27.3679401542       19.0025191337        8.0026337936
  H        14.8596098942       19.6770588363       12.1018078125
  H        17.0292543652       19.7354741628       13.3351310107
  H        18.3047969707       16.1992982458       11.2459681211
  H        16.1321239111       16.1574226658       10.0106889310
  H        16.9140238517       17.7373758663       14.8077226324
  H        46.0823142035       15.4162611207       12.0373103933
  H        43.9499144937       15.3353540932       13.3302969918
  H        42.5210535057       18.7674881864       11.1661621082
  H        44.6546690811       18.8234609530        9.8629686548
  H        44.0140383701       17.2899105786       14.7805823923
  H        20.3032040115       17.9461911814       11.4010964876
  H        46.0530028813       15.4004158549        4.0166093233
  H        43.9310333497       15.3489858806        2.7057259913
  H        42.5439209401       18.8223728463        4.8306626325
  H        44.6714180709       18.8581205342        6.1438234341
  H        44.0176823546       17.3030166239        1.2298881389
  H        46.1989864486       26.6826160519        4.6232765419
  H        52.7413003176       21.0626900159        8.1946555701
  H        14.8639201511       19.6804379263        3.9056013681
  H        17.0576014712       19.7568633951        2.7095930816
  H        18.3112845235       16.2102699398        4.7939015587
  H        16.1204570251       16.1585352471        6.0012410638
  H        16.9214043328       17.7424810246        1.2558450486
  H        52.3228128232       21.6737143897        6.2945329688
  H        52.0138046851       21.7027462448        9.4955736324
  H        49.0689748520       18.6088552154        5.2038632184
  H        13.2474348574       19.0163609642        7.9758086065
  H        29.9690872671       12.4735905967       12.2142760490
  H        28.9190564114       10.5367448206       13.3964575674
  H        25.2824072692       11.1664241731       11.1884058094
  H        26.3516086687       13.0875325347        9.9985582474
  H        27.2010707458       11.6629332852       14.7819466930
  H        30.9656028955       22.7981494287       11.9437152847
  H        31.9683952146       24.6545334322       13.2746056315
  H        35.6824692747       24.1440869973       11.1654544290
  H        34.6635047182       22.2875792392        9.8369688301
  H        33.6299781464       23.5893558451       14.7451717113
  H        25.7495327706        8.5799479076       11.3935086382
  H        30.9127788651       22.6268543844        3.8629279417
  H        31.9055638491       24.5248177069        2.5885775240
  H        35.5135577266       24.1839388090        4.9079820706
  H        34.4942982491       22.3066354730        6.2000206979
  H        33.5922968876       23.5727591464        1.1920159848
  H        40.6277586481       17.1421049793        4.6321183961
  H        32.5303374485       14.1479624343        8.2914473357
  H        29.8956722435       12.5147495483        3.9177172455
  H        28.8682890027       10.6099266479        2.6791381444
  H        25.1847253267       11.2142013324        4.8150382034
  H        26.2300773452       13.1120079479        6.0612331205
  H        27.1771752054       11.6853618166        1.2283484715
  H        33.2832836084       14.1331729056        6.4010795512
  H        33.4073188916       14.3890994942        9.6350192229
  H        32.1537927885       18.4656592757        5.0553593132
  H        30.2383271564       14.1857616404        8.1014134387
  H        16.1179450514        2.9630800645       12.1290743598
  H        14.9525710702        4.8199877030       13.3218580824
  H        17.3663267760        7.6858180024       11.2106985986
  H        18.5152280161        5.8184449614       10.0108279022
  H        16.7528416399        5.7390311889       14.7714801085
  H        44.8277819221       32.1402557236       11.9769152065
  H        45.9371029944       30.3414217522       13.3064196583
  H        43.6821797445       27.3781367952       11.1524703803
  H        42.5994042699       29.1900029517        9.8098241467
  H        44.2299612107       29.4365866707       14.7688613660
  H        14.8508622862        8.5459337006       11.3633088860
  H        44.8999115869       32.2339300827        3.9319958120
  H        46.0247072075       30.4128508318        2.6524078805
  H        43.7629119101       27.4840196134        4.8450939464
  H        42.6451705225       29.3177778898        6.1241714903
  H        44.2680661836       29.4703013923        1.2181867150
  H        34.9995657059       26.6309645482        4.6330996687
  H        36.6051543826       35.1339574619        8.1807703182
  H        16.1433144543        3.0127069900        3.9044467329
  H        14.9736577461        4.8559860669        2.6887020446
  H        17.3961931165        7.7470115695        4.7547963426
  H        18.5433064759        5.8931699698        5.9824533954
  H        16.7640446074        5.7549954261        1.2192381821
  H        36.2787441873       34.4821089410        6.2732481513
  H        36.3808584092       34.2092081770        9.4998131018
  H        40.5792179279       33.2022564851        5.1538209435
  H        17.4712880176        1.9474386226        7.9740570291
  H        29.1259606007       19.6503812477       12.3440506887
  H        28.6571411342       18.6814821285        3.6995403105
  H        30.7782299575       15.2808151848        3.7426428007
  H        32.0090077387       16.5173736612       12.5789519731
  H        27.7702296393       17.9519381237       14.0630423427
  H        32.7755939300       17.7927797567        1.6033590414
  H        18.8534997422        0.8689374254       12.3353524530
  H        40.5279541699       35.2290914038        3.9520479698
  H        42.3240481410       34.4189226373        3.5905956562
  H        22.0875361651        0.6922339701       12.3513423079
  H        11.5967332002       18.7128114732       12.3829277460
  H        52.2647806621       18.4317967785        3.6773639866
  H        49.2551744494       16.4766773506        3.5845592471
  H        10.1505687280       15.7983708435       12.2927029256
  H        50.8502302452       17.6925056519        3.9539896407
  H        10.0461344995       17.3948300350       12.0519547028
  H        20.2148093338        0.0021509078       12.0419802468
  H        39.1835373392       36.1244097736        3.6864622939
 Ni        30.2671848821       18.0613072417        2.0814495386
 Ni        31.1602735255       16.8624870705        0.1679820311
 Ni        29.5021767232       18.2162244996       -0.3278022622
 Ni        29.9331525884       17.7088594129       13.2363399364
  O        10.6499773925       14.3651169851        5.4858202723
  O        12.6131338843       14.6574246329        6.5839394123
  O        49.1478802180       16.8459079053        7.9899411775
  O        50.3501203761       20.9361494563        5.6482168939
  O        48.3484856210       20.5932775949        6.6660015311
  O        11.0516850701       17.0537257525        6.5007287954
  O        50.3208360893       20.8816917643       10.4069198907
  O        48.3466690202       20.5867149042        9.3271826994
  O        49.5435502939       18.2483701644       10.0683955976
  O        12.3589518498       18.6247179002        7.9997479239
  O        48.6932342602       14.1485585053        6.7513619010
  O         8.2099578019       14.2104259673        9.3224945187