     572
 i =      241, E =     -4777.6904712719
  C        11.8588547442       14.0535921273        5.7414009210
  C        12.4564317626       12.8906296426        5.0231449577
  C        11.7046935700       12.1716538016        4.0815789200
  C        12.2810766504       11.1094115256        3.3892878303
  C        13.6216461434       10.7396909331        3.6170791142
  C        14.3548524067       11.4432967401        4.5904767380
  C        13.7819666354       12.5083308283        5.2818841983
  C        14.2612275752        9.6490060152        2.8437966229
  C        14.2568887042        9.6569850954        1.4221094392
  C        13.7438501890       10.7591321020        0.6681524922
  C        49.1259028420       21.2316191189        5.8812535078
  C        48.5487612559       22.3994171616        5.1535950116
  C        49.2983296258       23.0663563461        4.1719969856
  C        48.7311024068       24.1051979536        3.4385113903
  C        47.4007056639       24.5070633271        3.6675154023
  C        46.6701095298       23.8584271088        4.6814373718
  C        47.2328559084       22.8137571231        5.4109706892
  C        46.7703351368       25.5848645754        2.8703191621
  C        46.7582919610       25.5549763893        1.4485401586
  C        47.2571871200       24.4394813383        0.7049546167
  C        14.8609837775        8.5706808571        0.7089493019
  C        14.8917806337        8.5970068754        3.5205497829
  C        49.1086872894       21.2006267274       10.1460188869
  C        48.5220408435       22.3616697034       10.8725343102
  C        49.2612643333       23.0226874221       11.8653707469
  C        48.6848624175       24.0570308375       12.5969392799
  C        47.3543058701       24.4535222319       12.3589403419
  C        46.6338805213       23.8084122069       11.3355509132
  C        47.2075341446       22.7725797864       10.6035901341
  C        46.7162329593       25.5286324519       13.1501325667
  C        46.7286814132       25.5251829182       14.5718629489
  C        47.2439602117       24.4258411585       15.3281843515
  C        40.6261622161       16.9986182423       15.2953298881
  C        40.6320872924       16.9945403062       12.4863189678
  C        11.8843582991       14.0859156260       10.2852212584
  C        12.4736581587       12.9102865428       10.9894486649
  C        11.7160922425       12.1772084027       11.9156149571
  C        12.2827236769       11.0949302414       12.5842444254
  C        13.6215778717       10.7213206422       12.3525131251
  C        14.3595612837       11.4366858895       11.3915619242
  C        13.7940976948       12.5176869580       10.7186560663
  C        14.2551506279        9.6247174416       13.1230904462
  C        14.2536636256        9.6447262425       14.5449201905
  C        13.7436242884       10.7536596091       15.2918998203
  C        22.5120585426        3.2444565348        5.7533130721
  C        23.2270231254        4.3498761750        5.0543539164
  C        24.2237514869        4.0699264135        4.1078826124
  C        24.8509454394        5.1096021065        3.4262116492
  C        24.4973267329        6.4513786384        3.6711208757
  C        23.5289663109        6.7229095517        4.6547530150
  C        22.8969571354        5.6850175296        5.3346609901
  C        25.1032617407        7.5577011395        2.8953125988
  C        25.0725342979        7.5512615208        1.4739332019
  C        24.3666079126        6.5537847757        0.7288875399
  C        38.2988511899       31.9284111755        5.8517954560
  C        37.5590929819       30.8395857934        5.1494559739
  C        36.5952604383       31.1461882620        4.1764894064
  C        35.9672043473       30.1279247000        3.4645070887
  C        36.2878580058       28.7769863154        3.7024860330
  C        37.2209080999       28.4777985672        4.7132232621
  C        37.8529584215       29.4950458631        5.4245183293
  C        35.6797183618       27.6883884250        2.9032360048
  C        35.7189430889       27.7037840423        1.4816070365
  C        36.4316106195       28.7045700770        0.7483767019
  C        25.6966993865        8.6198594212        0.7532147184
  C        25.7039929916        8.6309819533        3.5654051975
  C        38.3305184684       31.9613098527       10.1597069025
  C        37.6134041549       30.8886138224       10.9086583757
  C        36.6815796033       31.1989457092       11.9111708084
  C        36.0716824388       30.1823179212       12.6440662200
  C        36.3786933332       28.8288511193       12.3985448238
  C        37.2911682399       28.5283812916       11.3684885225
  C        37.9029696329       29.5415809632       10.6367810840
  C        35.7640840259       27.7308852472       13.1807607889
  C        35.7615427265       27.7258505287       14.6032580407
  C        36.4507125038       28.7159933389       15.3717341559
  C        46.1317543965       26.6183336370       15.2821386465
  C        46.0826782801       26.5773328861       12.4742309238
  C        22.4598770605        3.2559250207       10.2581183806
  C        23.1515090560        4.3652235912       10.9822309600
  C        24.1520429355        4.0803156617       11.9250059304
  C        24.7777169290        5.1112681735       12.6217667771
  C        24.4232134460        6.4567945256       12.3980783816
  C        23.4455891795        6.7349501918       11.4240440132
  C        22.8150651859        5.7042210209       10.7279814853
  C        25.0535484200        7.5553177121       13.1719481076
  C        25.0476440979        7.5494069687       14.5947763526
  C        24.3528920313        6.5539353646       15.3520587164
  C        26.6265787208       17.8657090021        5.7802988566
  C        25.3186694180       17.9111435736        5.0555535064
  C        25.0596695094       18.9092869511        4.1031342739
  C        23.8451782503       18.9337653501        3.4197694521
  C        22.8532180305       17.9623244859        3.6651879461
  C        23.1089881256       16.9861973864        4.6467631049
  C        24.3250205510       16.9572506079        5.3285957315
  C        21.5794645944       17.9499738766        2.9009821200
  C        21.5789211753       17.9313240269        1.4782250330
  C        22.7848839214       17.8139144130        0.7172715908
  C        34.4655083931       17.1894580770        5.9216823941
  C        35.7517427563       17.1166129848        5.1681210307
  C        35.9373725209       16.1465196950        4.1710627013
  C        37.1153187254       16.1166099575        3.4295281203
  C        38.1383585370       17.0556978744        3.6651216511
  C        37.9546243475       18.0063534071        4.6871567228
  C        36.7752063138       18.0410645319        5.4260290696
  C        39.3887897476       17.0524135853        2.8740621748
  C        39.3785825986       17.0497237110        1.4524568939
  C        38.1690029141       17.1693907144        0.6987597426
  C        20.3322287051       17.9466133469        0.7694686265
  C        20.3541927338       17.9495891677        3.5827943865
  C        34.4412907097       17.2317329100       10.1891749432
  C        35.7421665045       17.1121105595       10.9054495147
  C        35.9278453641       16.1338035091       11.8939463490
  C        37.1190210423       16.0798957316       12.6126746173
  C        38.1529743052       17.0033302269       12.3636244465
  C        37.9730679775       17.9537718800       11.3406210729
  C        36.7813053850       18.0127901076       10.6244863506
  C        39.4030704764       16.9996397023       13.1554572793
  C        39.3854777730       17.0227172990       14.5769139860
  C        38.1718979327       17.1568855208       15.3223210571
  C        35.1228768268       26.6487437892       15.3036202491
  C        35.1776272167       26.6599576468       12.4939725924
  C        26.5728588484       17.8274763485       10.3249190016
  C        25.2577274882       17.8740946625       11.0320634398
  C        24.9841011764       18.8945248964       11.9557009997
  C        23.7668498511       18.9214179993       12.6310743909
  C        22.7924249940       17.9288146255       12.4045194719
  C        23.0597798248       16.9330228339       11.4478573471
  C        24.2782283120       16.9035571410       10.7716848320
  C        21.5282622862       17.9140823456       13.1775654837
  C        21.5527926105       17.9126989647       14.5989251015
  C        22.7719903383       17.8057026355       15.3408197360
  C        14.0464538076       17.8289932493       10.2890472269
  C        15.3508003311       17.8863708594       11.0153144230
  C        15.6072084601       18.8909637072       11.9615431644
  C        16.8159368945       18.9129975444       12.6549327851
  C        17.8028367207       17.9332133961       12.4244603506
  C        17.5510059942       16.9524312556       11.4464819652
  C        16.3417118790       16.9259539203       10.7545376316
  C        19.0721985148       17.9188505650       13.1934454863
  C        19.0714583041       17.9203801522       14.6160615983
  C        17.8647389204       17.8216029494       15.3778332306
  C        46.8046420250       17.1453055206       10.1530782040
  C        45.5105370456       17.0470103128       10.8873271934
  C        45.3151880405       16.0650661668       11.8705277020
  C        44.1288389796       16.0267793731       12.5992163918
  C        43.1095019504       16.9710795562       12.3677487402
  C        43.3004659602       17.9281113528       11.3528033796
  C        44.4859122826       17.9695664434       10.6247470231
  C        41.8588111615       16.9799191721       13.1600046927
  C        41.8703049154       16.9968106076       14.5817948218
  C        43.0824601713       17.1000489760       15.3342163056
  C        20.3183777023       17.9359597277       15.3242879685
  C        20.2964093421       17.8975340957       12.5109737137
  C        46.7858338948       17.2310560239        5.8854533282
  C        45.4880677912       17.1190731633        5.1612933823
  C        45.2804365225       16.1094933182        4.2086112674
  C        44.0969683555       16.0669582075        3.4759896346
  C        43.0904224244       17.0313020846        3.6774378946
  C        43.2899874426       18.0133745960        4.6662584964
  C        44.4744963182       18.0617220566        5.3950628611
  C        41.8435267795       17.0319857232        2.8803380399
  C        41.8628947678       17.0225158206        1.4589449332
  C        43.0789392556       17.1112334863        0.7111088490
  C        46.1504176284       26.6350439457        0.7269117990
  C        46.1613429364       26.6544822717        3.5365660461
  C        14.0456193920       17.8326975592        5.7089426844
  C        15.3673718840       17.9090353445        5.0192430934
  C        15.6405375703       18.9267483852        4.0930744566
  C        16.8698824282       18.9665720725        3.4388921609
  C        17.8539614887       17.9879592827        3.6850349414
  C        17.5876523964       16.9991134299        4.6495516139
  C        16.3602535680       16.9587881921        5.3072383795
  C        19.1215204581       17.9660066100        2.9159886981
  C        19.0971778161       17.9432391037        1.4944549471
  C        17.8773791732       17.8318331596        0.7540077961
  C        28.8081650278       14.0907472732       10.3920470069
  C        28.1946965383       12.9175089455       11.0790843516
  C        28.9207109607       12.1662238944       12.0152432527
  C        28.3194609438       11.0925233623       12.6672643310
  C        26.9785687608       10.7452016397       12.4060281077
  C        26.2743744177       11.4756218147       11.4320432963
  C        26.8730176095       12.5500825220       10.7791585251
  C        26.3088301866        9.6660008202       13.1677421182
  C        26.3004201702        9.6913481310       14.5887727494
  C        26.8114663618       10.8011220867       15.3340067800
  C        32.1785148076       21.2403289807       10.1494637199
  C        32.7716123892       22.4081293415       10.8676314991
  C        32.0177311013       23.0986432969       11.8293622871
  C        32.5874532938       24.1384640747       12.5580219976
  C        33.9274199417       24.5171770907       12.3462424220
  C        34.6640336208       23.8463957775       11.3518073294
  C        34.0965479004       22.8009181798       10.6252469880
  C        34.5543130721       25.5924655233       13.1496697679
  C        34.5341393843       25.5659907801       14.5714572371
  C        34.0162466698       24.4530893382       15.3066622221
  C        25.6884696118        8.6153541208       15.3084167073
  C        25.6688710053        8.6170697535       12.4949460459
  C        32.0815956687       21.2052091939        5.8798275236
  C        32.6545222702       22.3651844448        5.1342328549
  C        31.9173762459       23.0223378124        4.1370742381
  C        32.4911231703       24.0605511663        3.4051603218
  C        33.8159238596       24.4726475172        3.6516138981
  C        34.5347454907       23.8290505347        4.6773091002
  C        33.9663238910       22.7866210490        5.4040931471
  C        34.4562994683       25.5580008280        2.8714444426
  C        34.4829975030       25.5488629831        1.4493463331
  C        33.9908780295       24.4454256600        0.6833433677
  C        40.6224196498       17.0121475968        0.7400478893
  C        40.6147853551       17.0605175404        3.5488953154
  C        28.7514740008       14.0692626681        5.8160863018
  C        28.1395051789       12.9240886134        5.0766236640
  C        28.8769268072       12.2210689657        4.1118446774
  C        28.2954071238       11.1640649113        3.4152319820
  C        26.9603788625       10.7834012330        3.6587445761
  C        26.2396542952       11.4741372936        4.6507435590
  C        26.8196064454       12.5318314864        5.3486395004
  C        26.3170288773        9.6924824190        2.8872772666
  C        26.3054034715        9.7050330303        1.4654966594
  C        26.8115222941       10.8091514360        0.7100510682
  C        18.1355337727        3.1809045102       10.3172197025
  C        17.4065324535        4.2781309610       11.0160430541
  C        16.3911041845        3.9998516896       11.9438976040
  C        15.7436481215        5.0398910674       12.6075329585
  C        16.0955657850        6.3835686787       12.3676164331
  C        17.0846542445        6.6530069440       11.4035320277
  C        17.7334723043        5.6156082074       10.7383481949
  C        15.4714273946        7.4913424755       13.1306014863
  C        15.4865746175        7.4906795502       14.5522934883
  C        16.1880382071        6.4970774892       15.3055582513
  C        42.9455897306       31.8593422072       10.0730701596
  C        43.6451149841       30.7713349541       10.8172513430
  C        44.5903859729       31.0919014015       11.8038307295
  C        45.1951220163       30.0858356678       12.5516132626
  C        44.8679645991       28.7329540518       12.3364821210
  C        43.9423889250       28.4193994093       11.3227706374
  C        43.3346067733       29.4250293905       10.5745710744
  C        45.4846680614       27.6530818471       13.1396300771
  C        45.4894505518       27.6788189020       14.5613337783
  C        44.8033390013       28.6873529065       15.3081950878
  C        14.8575407097        8.5631992915       15.2645399364
  C        14.8763145154        8.5631199301       12.4519055673
  C        42.9465896487       31.9614767400        5.8090446323
  C        43.6918733118       30.8851597778        5.0959656951
  C        44.6562281926       31.1906141862        4.1232578608
  C        45.2775091758       30.1706960748        3.4057656119
  C        44.9537842528       28.8204375183        3.6439758232
  C        44.0207366771       28.5232526081        4.6553148981
  C        43.3927112448       29.5403273835        5.3672661350
  C        45.5621042519       27.7226512271        2.8586563483
  C        45.5315042258       27.7157008352        1.4373622857
  C        44.8252842028       28.7061399105        0.6845805713
  C        35.0989711606       26.6388772152        0.7489632368
  C        35.0661958355       26.6149275343        3.5592522637
  C        18.1485382911        3.2469574804        5.7066664488
  C        17.4298983797        4.3437585763        4.9975136100
  C        16.4146947591        4.0525104037        4.0739339709
  C        15.7663924855        5.0831878816        3.3986377859
  C        16.1210666223        6.4283934515        3.6215067528
  C        17.1123962166        6.7117402630        4.5788115430
  C        17.7600752691        5.6827934034        5.2584861751
  C        15.4907342890        7.5241153209        2.8490340228
  C        15.4970104013        7.5075412134        1.4279211468
  C        16.1939700234        6.5058679368        0.6813667804
  H        10.6725306240       12.4657369969        3.9046489379
  H        11.6947787467       10.5508439809        2.6628193271
  H        15.3918882468       11.1687052321        4.7721876232
  H        14.3513843478       13.0716651443        6.0172690193
  H        13.3766053908       11.6311705645        1.2014469434
  H        50.3209699985       22.7462630580        3.9869892399
  H        49.3173293614       24.6201043723        2.6804858099
  H        45.6406443662       24.1591443851        4.8648676599
  H        46.6620494456       22.2886986728        6.1733522419
  H        47.6256047004       23.5730320338        1.2466245861
  H        14.8718555609        8.5882182633        4.6088509068
  H        50.2814005245       22.7000715339       12.0601246863
  H        49.2632639678       24.5725730996       13.3603737069
  H        45.6043673313       24.1053531063       11.1466071769
  H        46.6464710063       22.2505104533        9.8321401510
  H        47.6018384051       23.5483471885       14.7972920607
  H        40.6337819668       16.9528682112       11.3987721579
  H        48.6895051104       14.0923191247        7.8018893930
  H        10.6825528121       12.4661538778       12.0928299693
  H        11.6909249239       10.5245503383       13.2969462573
  H        15.3949919016       11.1587624619       11.2056881637
  H        14.3663464925       13.0869932472        9.9899975733
  H        13.3768297751       11.6222473644       14.7531983541
  H        47.9385500708       14.2122596993        9.7104208327
  H        47.7796484242       14.3720822726        6.4969991785
  H        49.0798583208       18.5462719162       10.8698747281
  H        10.4171020070       14.1333372833        7.9959357471
  H        24.4844534042        3.0313532737        3.9166311254
  H        25.6238391405        4.8923792849        2.6921262164
  H        23.2487179764        7.7558951622        4.8502292183
  H        22.1269628897        5.8852149292        6.0757181245
  H        23.8048023384        5.7980887834        1.2701213118
  H        36.3634172067       32.1902550856        3.9797477595
  H        35.2207120006       30.3703566101        2.7113046620
  H        37.4764425088       27.4377320624        4.9052436764
  H        38.5990947192       29.2707741825        6.1832001830
  H        36.9945433301       29.4534477175        1.2978115911
  H        25.7405731131        8.6137729473        4.6531654373
  H        36.4548064627       32.2434291661       12.1128606190
  H        35.3426452986       30.4297993835       13.4125234928
  H        37.5419696344       27.4880019435       11.1722958771
  H        38.6283869149       29.3134077503        9.8596382047
  H        37.0292081334       29.4732995942       14.8503930102
  H        46.1036904754       26.5845764795       11.3861855290
  H        44.6683726274       35.1161779263        7.8138735420
  H        24.4303236130        3.0423862208       12.0931241627
  H        25.5574677882        4.8834027755       13.3453879615
  H        23.1602839362        7.7691581664       11.2423457994
  H        22.0444865697        5.9161034908        9.9903537684
  H        23.7799343986        5.7990009490       14.8214799641
  H        44.9541085597       34.3906477421        9.6953612372
  H        44.9021013287       34.2069290980        6.4905173846
  H        40.6664964365       33.2092165395       10.8532482205
  H        23.1503827810        1.9578487692        8.0054249924
  H        25.8236132278       19.6598585260        3.9137429104
  H        23.6494411817       19.7150462156        2.6883638536
  H        22.3556864455       16.2265473634        4.8455649192
  H        24.5323072934       16.1898820768        6.0708097574
  H        23.7260911686       17.6996189967        1.2471828726
  H        35.1427948746       15.4275949879        3.9855112614
  H        37.2575704528       15.3566298775        2.6643597626
  H        38.7362606691       18.7402873988        4.8721578906
  H        36.6167098278       18.7891776343        6.1990926999
  H        37.2314622472       17.3029978057        1.2305761351
  H        20.3608156832       17.9876171583        4.6707392059
  H        35.1215787474       15.4335761759       12.0993977302
  H        37.2585416313       15.3193276281       13.3776710846
  H        38.7651526851       18.6728983222       11.1425888628
  H        36.6230728527       18.7653966394        9.8558168962
  H        37.2361346021       17.2811532514       14.7849129973
  H        35.1596843655       26.6844138581       11.4060274006
  H        28.5034258482       21.0792010527        7.9676635502
  H        25.7366189885       19.6622768581       12.1216340241
  H        23.5540609504       19.7169773620       13.3420288091
  H        22.3154796311       16.1601621832       11.2669719003
  H        24.4998524930       16.1237608087       10.0468799895
  H        23.7032986778       17.6853300156       14.7955772378
  H        29.0214728404       21.7155690064        9.7496746890
  H        29.1645605870       21.7399973617        6.6271667644
  H        32.0824349763       18.5658437981       10.9916424357
  H        27.4032577994       19.0749346106        8.0864013328
  H        14.8487250026       19.6503347523       12.1382010032
  H        17.0107229369       19.6986097365       13.3818566681
  H        18.3021417190       16.1877335400       11.2593760453
  H        16.1361666334       16.1555794735       10.0150865826
  H        16.9222265181       17.7042079806       14.8509877518
  H        46.1099288567       15.3471914499       12.0597416488
  H        43.9789789742       15.2592653705       13.3553851878
  H        42.5209181268       18.6643559184       11.1683865920
  H        44.6502907012       18.7247288064        9.8598859557
  H        44.0222961996       17.2036474862       14.7996625150
  H        20.2901492814       17.9215707134       11.4226903813
  H        46.0619845107       15.3710805125        4.0452425063
  H        43.9387953160       15.2813345566        2.7403630813
  H        42.5184476750       18.7632601056        4.8280565007
  H        44.6476020239       18.8378138705        6.1366538884
  H        44.0161138052       17.2232210828        1.2486487092
  H        46.1988640427       26.6812053082        4.6239851976
  H        52.7405536417       21.0625099948        8.1946769207
  H        14.8794433155       19.6801966376        3.9024342885
  H        17.0805542047       19.7587691425        2.7236468006
  H        18.3386644832       16.2370480031        4.8474342342
  H        16.1394876624       16.1824395863        6.0357786696
  H        16.9442594651       17.7223391202        1.2984383626
  H        52.3217148880       21.6728242408        6.2945202223
  H        52.0135069341       21.7026978482        9.4956320740
  H        49.0647337693       18.6090673857        5.2079362313
  H        13.2462174103       19.0183544380        7.9768840201
  H        29.9548613262       12.4361674905       12.2171206480
  H        28.8839451505       10.5093519362       13.3916954441
  H        25.2386045788       11.2164635626       11.2224072331
  H        26.3273017111       13.1349303122       10.0427795186
  H        27.1792452958       11.6670987422       14.7921081221
  H        30.9876453337       22.7958293428       12.0004809127
  H        31.9973648380       24.6723665625       13.2997382191
  H        35.7010625564       24.1287273804       11.1819536126
  H        34.6719333044       22.2578763187        9.8789793148
  H        33.6637771621       23.5846578190       14.7575181695
  H        25.6965648848        8.5982944080       11.4068686356
  H        30.8970623131       22.7010326037        3.9405639694
  H        31.9116546183       24.5702448220        2.6384097238
  H        35.5603140433       24.1343777103        4.8744272227
  H        34.5286281670       22.2685802257        6.1773132841
  H        33.6184942379       23.5708608244        1.2090861923
  H        40.6117026560       17.0373875344        4.6369604761
  H        32.5112345345       14.1444710075        8.2560557188
  H        29.9075572269       12.5151104863        3.9267542948
  H        28.8754530869       10.6148263554        2.6766950685
  H        25.2066402965       11.1931923952        4.8454360113
  H        26.2598810974       13.0806483737        6.1022530346
  H        27.1780778592       11.6813343224        1.2434714134
  H        33.3089952738       14.2228277986        6.4619296753
  H        33.4067832925       14.4006094111        9.6046278314
  H        32.1217652522       18.5187315567        5.2271364548
  H        30.2262276530       14.1893070474        8.0807657956
  H        16.1190529850        2.9633672484       12.1304094823
  H        14.9543557560        4.8206334542       13.3234018156
  H        17.3670174493        7.6858678454       11.2102508455
  H        18.5152757340        5.8181534619       10.0102236227
  H        16.7547347255        5.7397837713       14.7721439189
  H        44.8273229206       32.1387948079       11.9782858185
  H        45.9348662664       30.3390507193       13.3078559655
  H        43.6791172186       27.3775269475       11.1523281513
  H        42.5983055029       29.1901913854        9.8094546804
  H        44.2281375415       29.4353876154       14.7701026540
  H        14.8525926095        8.5462822177       11.3636864297
  H        44.8997708490       32.2331938655        3.9312436494
  H        46.0241572876       30.4116298510        2.6521783985
  H        43.7638618707       27.4836097275        4.8474748501
  H        42.6465252403       29.3177700031        6.1260860686
  H        44.2674284918       29.4694041283        1.2193016604
  H        35.0186241654       26.6265033335        4.6465558703
  H        36.6052688618       35.1340513138        8.1806285310
  H        16.1436475318        3.0129394913        3.9041322931
  H        14.9740794541        4.8564473525        2.6885071096
  H        17.3958636351        7.7472049341        4.7557770816
  H        18.5429682391        5.8931777720        5.9832468075
  H        16.7653236871        5.7556453396        1.2199134329
  H        36.2787628526       34.4823549377        6.2731335888
  H        36.3811138831       34.2089661961        9.4994572694
  H        40.5797073358       33.2020414137        5.1539161373
  H        17.4709811934        1.9472511754        7.9741202770
  H        29.2062908837       19.4011154211       12.5693274052
  H        29.6548435326       19.5770411274        3.5942943402
  H        31.4878581883       15.6868372629        3.5715165823
  H        31.1110807562       15.5476480953       12.5012256171
  H        28.0706689996       18.0882967332       14.4311978089
  H        29.5011172911       15.5652303778       14.6321225586
  H        31.5781753133       19.4562877380        1.3345959743
  H        32.9403837532       17.0548365371        1.5177849229
  H        28.7624842913       16.4549261113        0.5552780373
  H        32.6740841572       16.1842709876       14.4553584711
  H        18.8535659699        0.8688757061       12.3352156020
  H        40.5282428077       35.2288709537        3.9520152177
  H        42.3240664537       34.4186958256        3.5904310383
  H        22.0877613568        0.6920596204       12.3516040427
  H        11.5976646316       18.7131346386       12.3807350568
  H        52.2656228582       18.4306861028        3.6803864048
  H        49.2553623052       16.4775512346        3.5845256549
  H        10.1485796973       15.7993790694       12.3003533361
  H        50.8500422594       17.6928005403        3.9547630507
  H        10.0464659964       17.3938520444       12.0519920868
  H        20.2150202726        0.0022253927       12.0419339478
  H        39.1839860711       36.1247331064        3.6866420496
 Ni        31.1037386800       17.8708239823        2.9989538677
 Ni        31.1622103240       16.4644766405        0.1617073837
 Ni        29.7177520308       18.6169139509        0.2459238414
 Ni        30.0995736198       17.4234203721       13.2442410485
  O        10.6500873068       14.3649656247        5.4856797081
  O        12.6133231958       14.6575318210        6.5837878558
  O        49.1490967969       16.8444766011        7.9903299171
  O        50.3498657566       20.9352923749        5.6488921972
  O        48.3482068899       20.5918768290        6.6674243110
  O        11.0513753387       17.0539502041        6.5007493776
  O        50.3169462144       20.8815561176       10.4066780877
  O        48.3427795859       20.5820129134        9.3276283146