     563
 i =       80, E =     -4694.9869074009
  C        11.8584570248       14.0536906808        5.7416857382
  C        12.4560790611       12.8905875554        5.0233732968
  C        11.7046853020       12.1721944029        4.0810857621
  C        12.2810242247       11.1099404302        3.3887221319
  C        13.6213377678       10.7394979358        3.6169902659
  C        14.3541605023       11.4424866061        4.5911687858
  C        13.7812698770       12.5074616917        5.2827289308
  C        14.2608700528        9.6487847374        2.8435778895
  C        14.2560464760        9.6565506307        1.4218400379
  C        13.7428379546       10.7585986284        0.6678468271
  C        49.1263436618       21.2332615066        5.8798591512
  C        48.5494556039       22.4010252181        5.1526315546
  C        49.2996284473       23.0686317528        4.1719338624
  C        48.7326720247       24.1076837129        3.4386437680
  C        47.4019729710       24.5089922067        3.6669183520
  C        46.6707814809       23.8596808376        4.6799725851
  C        47.2332411039       22.8148131731        5.4093914717
  C        46.7718569778       25.5867734458        2.8696274515
  C        46.7611510290       25.5573483896        1.4478542568
  C        47.2610666043       24.4422376623        0.7043720139
  C        14.8597836068        8.5700767689        0.7085672080
  C        14.8917212904        8.5968155589        3.5201899181
  C        49.1129234595       21.2032278879       10.1452566091
  C        48.5275654695       22.3646174466       10.8724281016
  C        49.2669776059       23.0255917575       11.8650403869
  C        48.6907237789       24.0601796668       12.5965079485
  C        47.3602266540       24.4568033120       12.3584991726
  C        46.6395826851       23.8115651114       11.3353600733
  C        47.2130366904       22.7755646434       10.6036044759
  C        46.7218830599       25.5318623812       13.1495188591
  C        46.7336639819       25.5282970729       14.5712266406
  C        47.2489347898       24.4290030721       15.3276077555
  C        40.5820390297       17.0701407629       15.2492579903
  C        40.5496762393       17.0793926270       12.4351320462
  C        11.8825832532       14.0865072884       10.2853462080
  C        12.4714653855       12.9100759978       10.9892021208
  C        11.7140298219       12.1777901383       11.9161056917
  C        12.2802177561       11.0951534950       12.5846152082
  C        13.6185763620       10.7202080952       12.3520543369
  C        14.3563005598       11.4346611914       11.3902024398
  C        13.7912829284       12.5160334891       10.7174483635
  C        14.2521231842        9.6234901789       13.1226303532
  C        14.2513927341        9.6437278591       14.5445048303
  C        13.7419001328       10.7528453507       15.2915851749
  C        22.5094384832        3.2428769425        5.7476363533
  C        23.2214570347        4.3420606074        5.0344405754
  C        24.2234269076        4.0496526870        4.0969732828
  C        24.8586637458        5.0795706665        3.4078934541
  C        24.5073924693        6.4249529259        3.6350388790
  C        23.5280989271        6.7090098371        4.6046515987
  C        22.8892170115        5.6807421713        5.2933724195
  C        25.1329744657        7.5244221935        2.8640077855
  C        25.1325603907        7.5158992430        1.4418742187
  C        24.4443545255        6.5165890730        0.6835494615
  C        38.3027677847       31.9238711412        5.8412582442
  C        37.5743635193       30.8364899131        5.1199522279
  C        36.6208976744       31.1466592951        4.1367510033
  C        35.9954751795       30.1331465929        3.4140049957
  C        36.3035246911       28.7778356572        3.6491051440
  C        37.2314050860       28.4757615431        4.6655198084
  C        37.8617077900       29.4882359948        5.3870647642
  C        35.6815528871       27.6904102179        2.8541226444
  C        35.6959484101       27.7024511671        1.4292316380
  C        36.3991355874       28.6971212155        0.6814061846
  C        25.7687665925        8.5854687043        0.7327050521
  C        25.7253640235        8.5957132133        3.5446361405
  C        38.3184599886       31.9559688437       10.1518847207
  C        37.5769806155       30.8793890898       10.8760166011
  C        36.6362833161       31.1843372265       11.8729851576
  C        36.0084435609       30.1650387438       12.5878002484
  C        36.3028833840       28.8091485789       12.3341539031
  C        37.2181268221       28.5144507547       11.3038436493
  C        37.8481204812       29.5307094427       10.5892470833
  C        35.6863789415       27.7116772306       13.1207667901
  C        35.6983384838       27.7134506222       14.5464416709
  C        36.3995089068       28.7029288829       15.3031793237
  C        46.1357179076       26.6209881697       15.2813400600
  C        46.0879282936       26.5802077420       12.4734475238
  C        22.4750410604        3.2581249818       10.2548530045
  C        23.2004557547        4.3621083178       10.9612937687
  C        24.2187953782        4.0643611990       11.8818103046
  C        24.8752415209        5.0855570809       12.5664100958
  C        24.5358126126        6.4375266169       12.3562734961
  C        23.5424586476        6.7287185882       11.4014914701
  C        22.8821340430        5.7075146487       10.7159827963
  C        25.1821195279        7.5264225337       13.1376192148
  C        25.1589687218        7.5161240859       14.5615066803
  C        24.4547323065        6.5181166781       15.3066448820
  C        26.5579227309       17.8248638570        5.7452775683
  C        25.2511451980       17.8860426727        5.0339154713
  C        24.9967784743       18.8955751391        4.0920306380
  C        23.7843088564       18.9275530236        3.4091220399
  C        22.7949276789       17.9511680846        3.6424225240
  C        23.0437288056       16.9666165631        4.6169067004
  C        24.2565625351       16.9313964022        5.3017719226
  C        21.5327919734       17.9447311894        2.8652425336
  C        21.5537746498       17.9555312096        1.4435752705
  C        22.7700986118       17.8394019023        0.7001305031
  C        34.4674769865       17.1480452072        5.9051180818
  C        35.7549483890       17.0979051409        5.1633424213
  C        35.9506790227       16.1455975471        4.1488725430
  C        37.1279104612       16.1395075112        3.4066417054
  C        38.1471250728       17.0824845716        3.6540405175
  C        37.9551371117       18.0104946185        4.6969027380
  C        36.7751387288       18.0240583480        5.4364820176
  C        39.3907048064       17.1049919984        2.8506930495
  C        39.3637047511       17.1097673421        1.4265449750
  C        38.1470298744       17.2385109689        0.6894925343
  C        20.3176555804       17.9944266181        0.7195070246
  C        20.3008388796       17.9271088868        3.5315920595
  C        34.2495333604       17.2386329573       10.3383551580
  C        35.5712843478       17.1300022721       11.0013455727
  C        35.8019010031       16.1731691036       12.0057524196
  C        37.0246890877       16.1321773136       12.6695581673
  C        38.0558971335       17.0458800851       12.3604706666
  C        37.8316787788       17.9652924082       11.3149984703
  C        36.6097052975       18.0123545547       10.6505208592
  C        39.3262023261       17.0678129100       13.1213403543
  C        39.3312460040       17.0916304256       14.5470925098
  C        38.1319528991       17.2314729824       15.3117593796
  C        35.0648903006       26.6411517994       15.2602865943
  C        35.0893780259       26.6369130295       12.4467570718
  C        26.6327332333       17.8087420388       10.3449570038
  C        25.3324228460       17.9053409751       11.0628178233
  C        25.0983033893       18.9042431437       12.0204938588
  C        23.8680413085       18.9718631450       12.6718026727
  C        22.8455042478       18.0408082585       12.3941663493
  C        23.0794487410       17.0675453269       11.4053007027
  C        24.3051842571       16.9988587610       10.7502551258
  C        21.5688562881       18.0414791335       13.1472181385
  C        21.5717587621       18.0066986850       14.5684167835
  C        22.7782112300       17.8632394330       15.3245923846
  C        14.0534463049       17.8414019265       10.2776657677
  C        15.3720787226       17.9323764510       10.9768408714
  C        15.6311339878       18.9637849303       11.8934404148
  C        16.8496817239       19.0175384269       12.5679681671
  C        17.8442079780       18.0427990260       12.3496962924
  C        17.5921286467       17.0384707064       11.3961119154
  C        16.3730792047       16.9810733578       10.7216351407
  C        19.1104249918       18.0424908599       13.1271155448
  C        19.0891230989       18.0209279068       14.5497259948
  C        17.8710341502       17.9108255654       15.2921193121
  C        46.7896017169       17.2076454250       10.1448635328
  C        45.4752381287       17.1192702813       10.8507957772
  C        45.2499060653       16.1305201945       11.8222421172
  C        44.0507226858       16.0965181532       12.5307283447
  C        43.0396912995       17.0507081682       12.2951528011
  C        43.2578636652       18.0106434060       11.2873733295
  C        44.4580800085       18.0485973168       10.5789205642
  C        41.7872010102       17.0661992877       13.0915954591
  C        41.8164290639       17.0767252576       14.5175805740
  C        43.0356533502       17.1805407972       15.2562386823
  C        20.3258104174       18.0196256028       15.2750238298
  C        20.3446335331       18.0386145764       12.4628529853
  C        46.7858120603       17.2391947354        5.8712394195
  C        45.4973052322       17.1480192096        5.1232898442
  C        45.2953312772       16.1632297218        4.1426184615
  C        44.1177505827       16.1385511932        3.3977482609
  C        43.1035554815       17.0932250282        3.6144289402
  C        43.3009978193       18.0540009976        4.6261615106
  C        44.4806833417       18.0867417848        5.3645081576
  C        41.8491710429       17.0987988046        2.8255272419
  C        41.8486975501       17.0911827022        1.4007487409
  C        43.0512970118       17.1859036775        0.6353165169
  C        46.1533465688       26.6373532921        0.7261057721
  C        46.1618314436       26.6558498379        3.5357546077
  C        14.0383915426       17.8254170327        5.7010695061
  C        15.3464450012       17.8896224548        4.9868953530
  C        15.6097842476       18.9135975381        4.0648581546
  C        16.8277157639       18.9523437843        3.3905416995
  C        17.8085885136       17.9656733494        3.6130946778
  C        17.5491588935       16.9643959067        4.5668836411
  C        16.3334712502       16.9257274621        5.2454474351
  C        19.0779496257       17.9596123241        2.8491009078
  C        19.0727136627       17.9762467693        1.4275572613
  C        17.8631393639       17.8900788656        0.6683397106
  C        28.8169837642       14.1522666970       10.4166574067
  C        28.2579313518       12.9635795372       11.1132706597
  C        28.9828717421       12.2654006432       12.0914319515
  C        28.4134319090       11.1614542045       12.7244905036
  C        27.1049750577       10.7343641330       12.4120360953
  C        26.4067626823       11.4165771410       11.3985413516
  C        26.9727977708       12.5147873078       10.7603983648
  C        26.4442201233        9.6383337846       13.1593261603
  C        26.4058856648        9.6632598980       14.5805160510
  C        26.8801027938       10.7823216431       15.3361869902
  C        32.0780021923       21.1307582535       10.2528465848
  C        32.6627702448       22.3186056186       10.9326430286
  C        31.9306156697       23.0097329842       11.9135579979
  C        32.5033613778       24.0770212855       12.5991428414
  C        33.8263090948       24.4882545899       12.3333824712
  C        34.5347640345       23.8199057242       11.3146557312
  C        33.9660913385       22.7483992725       10.6286785276
  C        34.4665909095       25.5737116266       13.1145771142
  C        34.4664130299       25.5546103838       14.5398145635
  C        33.9688778902       24.4426187993       15.2878999591
  C        25.7875862514        8.5817019159       15.2874384231
  C        25.8144681631        8.5876786637       12.4745775813
  C        32.0791974126       21.2069027558        5.8595063143
  C        32.6485990239       22.3663115605        5.1207706823
  C        31.9201341677       23.0005369963        4.1003159509
  C        32.4899471274       24.0424015307        3.3713336481
  C        33.8039422219       24.4834815175        3.6353697589
  C        34.5111402493       23.8628690207        4.6850542049
  C        33.9475001569       22.8180215780        5.4118376203
  C        34.4442484204       25.5627926951        2.8458669009
  C        34.4541510303       25.5490142152        1.4210977739
  C        33.9613840981       24.4404361216        0.6657248216
  C        40.5982327895       17.0784636634        0.6964342728
  C        40.6266682699       17.1217827025        3.5082353803
  C        28.7429915461       14.0473770145        5.8094189195
  C        28.1447667701       12.8946553334        5.0799096718
  C        28.8829137718       12.2140509651        4.0990393445
  C        28.3116184688       11.1517648207        3.4036421635
  C        26.9857357484       10.7457765745        3.6591481744
  C        26.2665744390       11.4132726193        4.6686238386
  C        26.8364620706       12.4746314305        5.3685014054
  C        26.3505498660        9.6577270693        2.8783052579
  C        26.3577708437        9.6740764220        1.4563107188
  C        26.8557173902       10.7886604492        0.7116114513
  C        18.1353872262        3.1805866394       10.3170066547
  C        17.4054964925        4.2777262882       11.0152689604
  C        16.3902279653        3.9989708239       11.9431880322
  C        15.7421431043        5.0386707478       12.6067847941
  C        16.0931804462        6.3825739252       12.3668139468
  C        17.0819216059        6.6524619231       11.4024722124
  C        17.7314304220        5.6154008065       10.7373493268
  C        15.4686822656        7.4901296791       13.1299793242
  C        15.4843990386        7.4897027407       14.5517154786
  C        16.1862229837        6.4962788829       15.3048900897
  C        42.9456410913       31.8594783869       10.0728022338
  C        43.6461099363       30.7718566286       10.8166252971
  C        44.5917929417       31.0932311458       11.8025589100
  C        45.1976002489       30.0877355259       12.5501889881
  C        44.8711645726       28.7346426545       12.3354645558
  C        43.9452030518       28.4202620546       11.3223801857
  C        43.3362406734       29.4253469375       10.5743716914
  C        45.4888143311       27.6554058661       13.1386980827
  C        45.4930865329       27.6811483663       14.5603953228
  C        44.8060340784       28.6892293156       15.3070090376
  C        14.8555999440        8.5623128624       15.2640904817
  C        14.8730731699        8.5617385357       12.4514070407
  C        42.9463422688       31.9614482789        5.8090919865
  C        43.6914666487       30.8853602065        5.0955701161
  C        44.6562403092       31.1912566277        4.1234221077
  C        45.2776832361       30.1716836381        3.4056248573
  C        44.9537011705       28.8213563660        3.6430047762
  C        44.0199813714       28.5237090906        4.6535821385
  C        43.3917597751       29.5404536703        5.3658281304
  C        45.5627668710       27.7239962902        2.8577108901
  C        45.5333690998       27.7175109019        1.4363998610
  C        44.8271981574       28.7078226306        0.6834085813
  C        35.0608416164       26.6369965747        0.7079298331
  C        35.0720668391       26.6195433364        3.5199492154
  C        18.1489249877        3.2466490851        5.7070392336
  C        17.4302296727        4.3436159453        4.9977370959
  C        16.4153430245        4.0522862819        4.0738194427
  C        15.7669586363        5.0828275031        3.3983201855
  C        16.1211718092        6.4281696268        3.6211847839
  C        17.1121228116        6.7116103993        4.5789007330
  C        17.7598540388        5.6827751778        5.2587881128
  C        15.4905516863        7.5238134755        2.8486553078
  C        15.4962105775        7.5070781574        1.4274821876
  C        16.1928190529        6.5053186134        0.6807129666
  H        10.6727520984       12.4667685245        3.9036010456
  H        11.6947920219       10.5518860820        2.6618061212
  H        15.3909286460       11.1673081247        4.7735306223
  H        14.3503942149       13.0700427078        6.0189287146
  H        13.3759859598       11.6308332205        1.2010868477
  H        50.3224518041       22.7488159923        3.9874737133
  H        49.3192203858       24.6231491925        2.6812541655
  H        45.6410822656       24.1600142174        4.8626956737
  H        46.6620064654       22.2891179316        6.1710147683
  H        47.6292872516       23.5757184749        1.2460541818
  H        14.8720305680        8.5880642252        4.6084987948
  H        50.2870653725       22.7027987248       12.0597947495
  H        49.2691927548       24.5757598219       13.3598670018
  H        45.6100213728       24.1084866604       11.1466481790
  H        46.6519062923       22.2529651064        9.8325541546
  H        47.6075280069       23.5518044033       14.7967092669
  H        40.5381060183       17.0394929583       11.3472746870
  H        48.6864440505       14.0953516461        7.7997182137
  H        10.6809245774       12.4677895245       12.0941586338
  H        11.6883826934       10.5255495608       13.2979114833
  H        15.3913228454       11.1557581914       11.2035028111
  H        14.3635003172       13.0845887675        9.9881833543
  H        13.3749304630       11.6213904498       14.7529338439
  H        47.9297793920       14.2201268597        9.7112398156
  H        47.7797396261       14.3739913769        6.4946904451
  H        49.0780772042       18.5492200717       10.8656169022
  H        10.4151757321       14.1345989832        7.9993054460
  H        24.4842766967        3.0084666284        3.9209466703
  H        25.6386474831        4.8513999416        2.6846907833
  H        23.2474127494        7.7446683359        4.7847908679
  H        22.1139670290        5.8915748656        6.0260934891
  H        23.8755132376        5.7584450245        1.2140616704
  H        36.3913728699       32.1916548056        3.9418547863
  H        35.2550662008       30.3843184906        2.6576193243
  H        37.4831815162       27.4346888142        4.8573772089
  H        38.6004275239       29.2554931165        6.1506490747
  H        36.9726503415       29.4467937201        1.2188752314
  H        25.7442420044        8.5760420708        4.6328001314
  H        36.4176040633       32.2280546654       12.0876345202
  H        35.2771152394       30.4135239997       13.3538259590
  H        37.4613317474       27.4744909991       11.0956983345
  H        38.5769781684       29.3013869726        9.8154821872
  H        36.9738605350       29.4570169098       14.7729190262
  H        46.1091601878       26.5874423653       11.3854063754
  H        44.6680687749       35.1158117323        7.8140997862
  H        24.4857909170        3.0225756740       12.0447568168
  H        25.6651181900        4.8428319519       13.2741880867
  H        23.2657524536        7.7666027970       11.2272553022
  H        22.0997920544        5.9342376488        9.9950953165
  H        23.8937078443        5.7614269202       14.7660393120
  H        44.9528739688       34.3895642828        9.6946468210
  H        44.9007790348       34.2065632199        6.4905423847
  H        40.6626249610       33.2068370731       10.8519197401
  H        23.1515446992        1.9569357031        8.0035140990
  H        25.7597426792       19.6486737870        3.9094852117
  H        23.5892035881       19.7145046638        2.6838886855
  H        22.2895969144       16.2048930419        4.8038730314
  H        24.4627183909       16.1567283480        6.0364651782
  H        23.7022302034       17.6951476195        1.2386667645
  H        35.1624955546       15.4240113901        3.9467642883
  H        37.2735393485       15.3949440969        2.6271223678
  H        38.7295925550       18.7484826923        4.8955611428
  H        36.6156484043       18.7611146224        6.2198596112
  H        37.2176619656       17.3801319653        1.2335755934
  H        20.2929070430       17.9412458348        4.6200176795
  H        35.0062231077       15.4791498346       12.2675201520
  H        37.1936200080       15.3871557369       13.4438621893
  H        38.6144409538       18.6772505524       11.0613557345
  H        36.4281862340       18.7466901297        9.8693999568
  H        37.1899741404       17.3700437549       14.7896332402
  H        35.0607287599       26.6565165953       11.3587029923
  H        28.5038280552       21.1041791029        7.7901737502
  H        25.8892527078       19.6193536818       12.2374430358
  H        23.6859031952       19.7519966144       13.4078118905
  H        22.3012323881       16.3399998207       11.1843676707
  H        24.4957920046       16.2357226049       10.0000710853
  H        23.7171572585       17.7356500086       14.7943291116
  H        28.9044488540       21.7364346245        9.7422101035
  H        29.1879388706       21.6992888423        6.4473184655
  H        31.8839138951       18.4990655888       11.2813293640
  H        27.3491889603       19.1013215709        7.9835123443
  H        14.8651364114       19.7168334861       12.0646233424
  H        17.0432843485       19.8205859735       13.2760215587
  H        18.3491606980       16.2775490026       11.2174539345
  H        16.1676459787       16.1910708400       10.0029963122
  H        16.9356655710       17.8107405520       14.7494602662
  H        46.0339585386       15.4033632470       12.0207310072
  H        43.8856664808       15.3250052414       13.2797214316
  H        42.4893146285       18.7562241422       11.0936679847
  H        44.6381920761       18.8098442164        9.8232815301
  H        43.9690142478       17.2894381602       14.7116573913
  H        20.3530259055       18.0788639813       11.3749693707
  H        46.0758932446       15.4259218250        3.9688822002
  H        43.9680194880       15.3681350259        2.6444221183
  H        42.5291031490       18.8005375964        4.8014659628
  H        44.6459825994       18.8473019878        6.1238878031
  H        43.9964628572       17.2988679424        1.1587405388
  H        46.1983708799       26.6821885972        4.6232162293
  H        52.7407247627       21.0624027461        8.1945930681
  H        14.8511323319       19.6747122019        3.8967210188
  H        17.0341145430       19.7529441105        2.6834946405
  H        18.2981719841       16.1951059404        4.7430770511
  H        16.1181435338       16.1431651806        5.9690582613
  H        16.9217119460       17.7735805263        1.1970802891
  H        52.3213357320       21.6729085784        6.2949024419
  H        52.0121331787       21.7014001093        9.4953499828
  H        49.0671738544       18.6081475382        5.2039357383
  H        13.2467599098       19.0174514388        7.9732750096
  H        29.9862806391       12.6017586050       12.3449814769
  H        28.9795162917       10.6182066984       13.4780237524
  H        25.3961924201       11.1013044706       11.1473924793
  H        26.4260593389       13.0575239605        9.9938131575
  H        27.2334958303       11.6612492717       14.8057591323
  H        30.9168740779       22.6867735608       12.1384264630
  H        31.9275667673       24.6053088311       13.3558578747
  H        35.5568996455       24.1227174325       11.0965661682
  H        34.5280005268       22.2129195803        9.8670066665
  H        33.6183156152       23.5650562228       14.7526946170
  H        25.8569080766        8.5719750516       11.3868090352
  H        30.9136369196       22.6525114670        3.8782101535
  H        31.9150372577       24.5301580126        2.5872542694
  H        35.5278780511       24.1856714092        4.8991911529
  H        34.5080722314       22.3220582037        6.2004191942
  H        33.6054328911       23.5612878106        1.1951531892
  H        40.6383794201       17.0936289333        4.5962474555
  H        32.5295023097       14.1503480102        8.2436112988
  H        29.9024194496       12.5342560380        3.8964791521
  H        28.8914488368       10.6206188207        2.6520194153
  H        25.2408708473       11.1134929232        4.8733918907
  H        26.2752097974       13.0062250896        6.1331389271
  H        27.1909038378       11.6709618656        1.2490991085
  H        33.2974670657       14.2103251309        6.4407782865
  H        33.3964752879       14.3173565263        9.6500164262
  H        32.0631403993       18.3898057610        5.0976807588
  H        30.2173682423       14.1323172032        8.0759968077
  H        16.1188325302        2.9623421842       12.1298729815
  H        14.9530835706        4.8188852205       13.3227533770
  H        17.3635708849        7.6854803814       11.2089864681
  H        18.5130390309        5.8183950616       10.0091327393
  H        16.7526475783        5.7388451654       14.7713815421
  H        44.8280635958       32.1403164742       11.9767079405
  H        45.9375157653       30.3415203404       13.3060722051
  H        43.6824271555       27.3781897421       11.1524042242
  H        42.5994111578       29.1899184197        9.8099357046
  H        44.2306632363       29.4369866815       14.7687078106
  H        14.8488976885        8.5447216924       11.3631986423
  H        44.8999531044       32.2339236091        3.9321293536
  H        46.0246882832       30.4128939896        2.6524836806
  H        43.7627678145       27.4839969933        4.8449046140
  H        42.6450198939       29.3176210815        6.1240324568
  H        44.2685863885       29.4706661834        1.2179488160
  H        35.0390744046       26.6360765475        4.6078353705
  H        36.6052988226       35.1334691238        8.1810209446
  H        16.1445172600        3.0126698803        3.9039122164
  H        14.9748656017        4.8557678589        2.6880421720
  H        17.3952008454        7.7471377756        4.7561278002
  H        18.5422641726        5.8933721297        5.9840169986
  H        16.7644038143        5.7551469077        1.2190879104
  H        36.2794625199       34.4812203712        6.2735499159
  H        36.3816557625       34.2087659455        9.5005544689
  H        40.5792078730       33.2019059904        5.1541035450
  H        17.4725234022        1.9464781263        7.9745101819
  H        28.8106166587       18.7179179109        3.6992083132
  H        31.8496462296       15.8592627363        3.5688597383
  H        27.7785499622       18.4910411932       14.6333283812
  H        29.9010617205       14.5894749157       15.0246498363
  H        32.7029110777       17.2201727911        1.3558505064
  H        18.8530581338        0.8688068792       12.3349974101
  H        40.5283115260       35.2290976728        3.9521726611
  H        42.3230873479       34.4178475042        3.5912971277
  H        22.0874631144        0.6924085034       12.3514448172
  H        11.5971564391       18.7120335318       12.3823175522
  H        52.2646435220       18.4314400651        3.6783389263
  H        49.2544987835       16.4776106667        3.5855264709
  H        10.1499566212       15.7982718498       12.2926981418
  H        50.8496833450       17.6923059638        3.9540950066
  H        10.0455064465       17.3947300438       12.0520376922
  H        20.2142311182        0.0017777508       12.0422103686
  H        39.1836762476       36.1245219185        3.6868318915
 Ni        30.8130131762       17.7470861264        2.7493472770
 Ni        30.8232283455       16.4181430661        0.3329344275
 Ni        29.7999079819       18.4809260752        0.0879600702
 Ni        29.4658579239       16.8561115657       14.5696309648
  O        10.6498373047       14.3651868746        5.4858341645
  O        12.6131461297       14.6576298131        6.5839631261
  O        49.1473386142       16.8459671020        7.9900387830
  O        50.3500031040       20.9362360518        5.6483601689
  O        48.3483884736       20.5932611314        6.6660966312
  O        11.0509288576       17.0537057881        6.5008066306
  O        50.3208774138       20.8816887956       10.4068034067
  O        48.3466363743       20.5865745020        9.3270340292
  O        49.5433392023       18.2482896390       10.0683689288
  O        12.3590139909       18.6244258661        7.9999320053
  O        48.6929299362       14.1487960944        6.7511660240
  O         8.2095783103       14.2108641212        9.3228721287
  O        10.7352518664       14.5068086742       10.6643249584