     566
 i =      134, E =     -4712.2138137314
  C        11.8583354693       14.0535235255        5.7415233016
  C        12.4558561990       12.8903346300        5.0232687272
  C        11.7044941233       12.1720598286        4.0808801417
  C        12.2808236767       11.1097886351        3.3885322238
  C        13.6210758284       10.7392469775        3.6169581956
  C        14.3538291490       11.4420637091        4.5913038214
  C        13.7809510090       12.5070505358        5.2828282177
  C        14.2606835340        9.6486243259        2.8435355506
  C        14.2560529975        9.6565139840        1.4218094013
  C        13.7429066062       10.7586067212        0.6678354768
  C        49.1262603484       21.2334338803        5.8797928239
  C        48.5493190838       22.4011176084        5.1525581491
  C        49.2996101787       23.0689917436        4.1721203454
  C        48.7325985895       24.1080158197        3.4388516648
  C        47.4017782562       24.5090358719        3.6669331323
  C        46.6704535795       23.8594428652        4.6797010303
  C        47.2329568349       22.8145872399        5.4091018982
  C        46.7716580211       25.5868099772        2.8696542800
  C        46.7609555242       25.5573632767        1.4478916175
  C        47.2608675849       24.4422378731        0.7044341349
  C        14.8598595606        8.5700816958        0.7085391412
  C        14.8914819988        8.5966363550        3.5201463358
  C        49.1126691997       21.2033770214       10.1453584124
  C        48.5272682532       22.3646625642       10.8725190375
  C        49.2666256040       23.0257374925       11.8651064169
  C        48.6902545305       24.0602662577       12.5965471069
  C        47.3596626447       24.4566310299       12.3586129070
  C        46.6390095028       23.8112325730       11.3355808685
  C        47.2126097608       22.7753191745       10.6038337958
  C        46.7213083195       25.5316877952       13.1495967796
  C        46.7332384820       25.5281824956       14.5712959801
  C        47.2486213574       24.4289374462       15.3276711937
  C        40.6095125812       17.1155473557       15.3157542997
  C        40.6193759140       17.1706459618       12.5041734808
  C        11.8823798239       14.0863656461       10.2853285540
  C        12.4714203026       12.9100470157       10.9893391926
  C        11.7140382406       12.1776249310       11.9161539936
  C        12.2803393551       11.0950146227       12.5846222049
  C        13.6187594593       10.7202866597       12.3521338692
  C        14.3564482288       11.4348836000       11.3903717659
  C        13.7913000630       12.5161956426       10.7176513176
  C        14.2523673195        9.6235808086       13.1226448189
  C        14.2516237143        9.6438137659       14.5445043286
  C        13.7420853513       10.7529191581       15.2915748926
  C        22.5097407955        3.2443369426        5.7467924184
  C        23.2206063633        4.3453829112        5.0332387413
  C        24.2173351693        4.0559884482        4.0890932633
  C        24.8498434033        5.0877721432        3.3996655686
  C        24.5023105480        6.4334540942        3.6325698847
  C        23.5287130989        6.7142331518        4.6091778255
  C        22.8922176621        5.6840925635        5.2979220960
  C        25.1256126823        7.5348567758        2.8609575280
  C        25.1226929359        7.5281777855        1.4381710329
  C        24.4299287713        6.5316117050        0.6809279073
  C        38.2974916642       31.9269402436        5.8506949691
  C        37.5553421908       30.8395035842        5.1481668127
  C        36.5928864975       31.1484026950        4.1738837730
  C        35.9606032401       30.1325175114        3.4620415203
  C        36.2735298484       28.7793156973        3.7001014417
  C        37.2055366053       28.4781908069        4.7119958710
  C        37.8423076877       29.4931226441        5.4231351232
  C        35.6593235350       27.6925629785        2.9017254217
  C        35.6946406270       27.7074374032        1.4786436186
  C        36.4076655735       28.7056280499        0.7440152342
  C        25.7611030576        8.5964169281        0.7278478107
  C        25.7194166308        8.6063843158        3.5402521016
  C        38.3282669149       31.9594143577       10.1599028840
  C        37.6077458375       30.8864586370       10.9058960490
  C        36.6754002943       31.1954176375       11.9090045340
  C        36.0622985991       30.1785234169       12.6392052017
  C        36.3647459735       28.8236747836       12.3922627992
  C        37.2769830471       28.5249714509       11.3607327633
  C        37.8922760224       29.5384092093       10.6316177535
  C        35.7483484058       27.7258000180       13.1746701465
  C        35.7396684221       27.7246154348       14.5988320072
  C        36.4275751339       28.7148243445       15.3664700508
  C        46.1353583871       26.6209093912       15.2813943420
  C        46.0872566623       26.5799662928       12.4735160757
  C        22.4739718038        3.2583796196       10.2545538245
  C        23.1967650191        4.3637181117       10.9614788184
  C        24.2118515313        4.0684196956       11.8862859557
  C        24.8659570691        5.0915862080       12.5701640039
  C        24.5275823519        6.4429860517       12.3546009759
  C        23.5371430077        6.7315863660       11.3961396678
  C        22.8789636909        5.7084152761       10.7116238289
  C        25.1728450367        7.5338170501       13.1338631534
  C        25.1474535783        7.5269081003       14.5580104009
  C        24.4391018359        6.5330019161       15.3037396877
  C        26.5546233053       17.8264271377        5.7774535556
  C        25.2566165928       17.8834608585        5.0575807309
  C        25.0137692992       18.8784370121        4.0970182321
  C        23.8064849659       18.9033153079        3.4047746190
  C        22.8101326568       17.9370772996        3.6507991452
  C        23.0482276448       16.9675964539        4.6432751441
  C        24.2566092833       16.9365003210        5.3343371050
  C        21.5460728070       17.9248477845        2.8780226663
  C        21.5563408975       17.9139087211        1.4559978138
  C        22.7661125477       17.7942961001        0.7014325729
  C        34.4424126604       17.1821358094        5.9504950980
  C        35.7312935164       17.1193028520        5.2073091911
  C        35.9173953034       16.1706580121        4.1886009459
  C        37.0926850714       16.1594473032        3.4422284814
  C        38.1180667934       17.0930183972        3.6938939512
  C        37.9343831433       18.0194749328        4.7395675703
  C        36.7559069034       18.0392529383        5.4812578061
  C        39.3681171224       17.1049810043        2.8997545469
  C        39.3590587997       17.1257838629        1.4759473761
  C        38.1524569304       17.2638003967        0.7227383575
  C        20.3131250223       17.9373617928        0.7431688403
  C        20.3195108124       17.9197244120        3.5555306891
  C        34.4290565483       17.2299876439       10.1978548502
  C        35.7187888118       17.1647809371       10.9217646624
  C        35.9258163257       16.2109568723       11.9336023462
  C        37.1168857862       16.1964749013       12.6512244530
  C        38.1378281868       17.1321396287       12.3829743936
  C        37.9366540449       18.0571184973       11.3382586333
  C        36.7438254000       18.0797083278       10.6226163611
  C        39.3877356171       17.1530790086       13.1719640340
  C        39.3697389950       17.1525075152       14.5963622398
  C        38.1580053590       17.2772317467       15.3445982412
  C        35.0977050931       26.6495463125       15.3005248505
  C        35.1659572678       26.6514888704       12.4900173898
  C        26.5446852399       17.8755359186       10.2832611830
  C        25.2348516872       17.9189900871       10.9875683461
  C        24.9810064358       18.9171294813       11.9414398725
  C        23.7717176839       18.9344580311       12.6294648819
  C        22.7866631655       17.9570217169       12.3837579514
  C        23.0347505876       16.9849751143       11.3974740253
  C        24.2462856042       16.9615525859       10.7109445353
  C        21.5255296897       17.9346078736       13.1584202997
  C        21.5451233684       17.9183495678       14.5795013826
  C        22.7605061441       17.7971801969       15.3249438273
  C        14.0446663373       17.8324900939       10.2832339743
  C        15.3520010951       17.8983126949       10.9995711412
  C        15.6116456474       18.9137219483       11.9325830073
  C        16.8228738519       18.9415725075       12.6201502756
  C        17.8049650771       17.9566388540       12.3948800772
  C        17.5512767118       16.9664775783       11.4277725902
  C        16.3395964458       16.9344063904       10.7416182504
  C        19.0713297821       17.9413265905       13.1650298407
  C        19.0636013125       17.9320372430       14.5864663850
  C        17.8521136659       17.8313322020       15.3400858177
  C        46.7993294807       17.2186703124       10.1590997926
  C        45.5049257881       17.1569262852       10.8997777884
  C        45.2903539257       16.1791342440       11.8842540090
  C        44.1049869359       16.1631830763       12.6155584353
  C        43.1000260173       17.1248893791       12.3876345799
  C        43.3115453816       18.0807521987       11.3747148538
  C        44.4974153040       18.1005814315       10.6439083129
  C        41.8460310476       17.1414888236       13.1778805171
  C        41.8547401897       17.1285697140       14.6024847308
  C        43.0643057634       17.2145378235       15.3585767237
  C        20.3071375836       17.9385818654       15.2990871375
  C        20.2964727657       17.9249567589       12.4869959350
  C        46.7831022966       17.2304239985        5.8872430357
  C        45.4809020001       17.1209670077        5.1710729149
  C        45.2697017644       16.1297600031        4.1996953815
  C        44.0818446018       16.0988818913        3.4732757511
  C        43.0720539111       17.0551462438        3.6999901326
  C        43.2741161935       18.0149378488        4.7104743838
  C        44.4635091760       18.0532116226        5.4313513915
  C        41.8243661766       17.0751517314        2.9049272261
  C        41.8440481371       17.0929558197        1.4819447597
  C        43.0594250306       17.1962519913        0.7367402334
  C        46.1530995761       26.6373287607        0.7261443337
  C        46.1616206104       26.6558601895        3.5357975020
  C        14.0394520740       17.8270809293        5.7053416853
  C        15.3531156388       17.8931239274        5.0025046380
  C        15.6250993586       18.9156460424        4.0817746820
  C        16.8487222248       18.9505703301        3.4177688273
  C        17.8249745542       17.9617594565        3.6503558895
  C        17.5582917033       16.9642810745        4.6052349821
  C        16.3369195704       16.9292481566        5.2731355867
  C        19.0916747657       17.9422417636        2.8830621500
  C        19.0744852556       17.9313556998        1.4619636630
  C        17.8574253529       17.8308606040        0.7163101261
  C        28.8429493627       14.1371047457       10.4009479898
  C        28.2839107237       12.9412986686       11.0779924224
  C        28.9972561047       12.2517616526       12.0730959101
  C        28.4193257190       11.1595019315       12.7171965936
  C        27.1134767827       10.7268762299       12.3971211998
  C        26.4305259765       11.3936267757       11.3618491895
  C        27.0023128057       12.4845553354       10.7165987727
  C        26.4437870320        9.6414683670       13.1508339569
  C        26.4023235747        9.6695568615       14.5730249124
  C        26.8783548253       10.7877912116       15.3277856281
  C        32.1898839078       21.2469288990       10.1129551806
  C        32.7723613118       22.3996368624       10.8459772320
  C        32.0205650654       23.0645696857       11.8295985423
  C        32.5845694687       24.1019271584       12.5653045965
  C        33.9152246113       24.5096190837       12.3404933223
  C        34.6478610631       23.8629266151       11.3250029208
  C        34.0896331661       22.8175503482       10.5931768371
  C        34.5371833594       25.5856119345       13.1456198035
  C        34.5115802353       25.5638158718       14.5693539980
  C        33.9976489861       24.4518796337       15.3068577573
  C        25.7796309030        8.5915487288       15.2820889602
  C        25.8096327539        8.5907037857       12.4690708980
  C        32.0668883414       21.2005100937        5.8717731705
  C        32.6308877543       22.3663820401        5.1352755907
  C        31.9033387697       23.0001066080        4.1151731258
  C        32.4739082679       24.0427363953        3.3874930312
  C        33.7866919342       24.4817349983        3.6555381379
  C        34.4932998259       23.8615664871        4.7051606503
  C        33.9286992803       22.8164030649        5.4299949983
  C        34.4289236329       25.5641756849        2.8730210190
  C        34.4560566664       25.5528462443        1.4491589663
  C        33.9699938288       24.4469359588        0.6843294992
  C        40.6036639406       17.0992589564        0.7619525211
  C        40.5950150006       17.0989969410        3.5735031396
  C        28.7446781121       14.0495722836        5.8103665526
  C        28.1477115342       12.8974791603        5.0846213519
  C        28.8807789229       12.2226543775        4.0949575638
  C        28.3069863881       11.1642040425        3.3963757738
  C        26.9828680133       10.7538717365        3.6561210668
  C        26.2696631364       11.4146215192        4.6751839924
  C        26.8413402783       12.4725268198        5.3784765264
  C        26.3455416119        9.6681251392        2.8734026551
  C        26.3533071615        9.6842966973        1.4505363318
  C        26.8536513767       10.7962755059        0.7037199528
  C        18.1354280888        3.1805857873       10.3170058860
  C        17.4055760272        4.2777531037       11.0153383296
  C        16.3901931016        3.9990206324       11.9431229356
  C        15.7421313093        5.0387437119       12.6067139246
  C        16.0932894095        6.3826167667       12.3668046558
  C        17.0821336232        6.6524829327       11.4025704815
  C        17.7316129673        5.6154032725       10.7374653750
  C        15.4688687494        7.4902046034       13.1299690562
  C        15.4845547863        7.4897542142       14.5516986365
  C        16.1862772493        6.4962580949       15.3048735960
  C        42.9457396617       31.8595049860       10.0728153109
  C        43.6460417661       30.7718704649       10.8167089170
  C        44.5917310048       31.0931302985       11.8026633028
  C        45.1973574079       30.0875457080       12.5503122934
  C        44.8706919708       28.7345083053       12.3355717663
  C        43.9446793126       28.4202259792       11.3225099328
  C        43.3359371957       29.4254089605       10.5744680421
  C        45.4882677539       27.6552257385       13.1387753253
  C        45.4926506861       27.6810285201       14.5604643169
  C        44.8056246117       28.6891255018       15.3070804211
  C        14.8557905189        8.5623774881       15.2640748130
  C        14.8732771415        8.5618245142       12.4514034187
  C        42.9463498925       31.9614510486        5.8090425978
  C        43.6913753612       30.8853716998        5.0954752722
  C        44.6562510522       31.1912577679        4.1234246656
  C        45.2776850985       30.1716566219        3.4056740765
  C        44.9534911464       28.8213639804        3.6429631771
  C        44.0196003356       28.5237148052        4.6533678672
  C        43.3913951766       29.5404919563        5.3655691481
  C        45.5625914462       27.7240019355        2.8577282995
  C        45.5331505616       27.7174939073        1.4364299604
  C        44.8268961408       28.7077706960        0.6834764616
  C        35.0721464224       26.6424425903        0.7469319556
  C        35.0437646673       26.6205930018        3.5583940945
  C        18.1488968943        3.2467590580        5.7070071841
  C        17.4301588223        4.3437021224        4.9977047230
  C        16.4152226323        4.0522767351        4.0738842592
  C        15.7668113149        5.0827755280        3.3983521643
  C        16.1210459111        6.4281104750        3.6211421939
  C        17.1120390174        6.7116277569        4.5787821261
  C        17.7598167026        5.6828502052        5.2586955800
  C        15.4904373667        7.5237263143        2.8486065370
  C        15.4962141251        7.5070426591        1.4274445932
  C        16.1928039163        6.5052563680        0.6806954411
  H        10.6726058294       12.4667516885        3.9033143304
  H        11.6946332584       10.5517832522        2.6615432349
  H        15.3905145662       11.1666857941        4.7738237512
  H        14.3499707063       13.0695504312        6.0191635585
  H        13.3759626142       11.6307863464        1.2011024856
  H        50.3225344091       22.7493952743        3.9878484313
  H        49.3191831477       24.6236980841        2.6816355660
  H        45.6406259161       24.1594921792        4.8621886153
  H        46.6615724407       22.2886353826        6.1704373139
  H        47.6291236905       23.5757478661        1.2461434941
  H        14.8716415684        8.5877900281        4.6084509749
  H        50.2867904998       22.7031359369       12.0597698836
  H        49.2686769621       24.5759884943       13.3598465873
  H        45.6093779165       24.1079748588       11.1469551556
  H        46.6515306925       22.2526895190        9.8327657554
  H        47.6071322352       23.5516996698       14.7967802028
  H        40.6224500469       17.1449557321       11.4160246067
  H        48.6865072987       14.0950852884        7.7996842341
  H        10.6808672531       12.4674567975       12.0941191256
  H        11.6885532546       10.5252809603       13.2978571805
  H        15.3915060287       11.1560894232       11.2037175858
  H        14.3633752075       13.0847923168        9.9883116065
  H        13.3751076639       11.6214554093       14.7529114096
  H        47.9296180006       14.2189318913        9.7108614678
  H        47.7800172759       14.3740830574        6.4945723075
  H        49.0809107822       18.5514803456       10.8667549619
  H        10.4149027951       14.1344485212        7.9988083639
  H        24.4764639191        3.0152700312        3.9075793572
  H        25.6251764467        4.8603138304        2.6712373437
  H        23.2496113779        7.7493260213        4.7950746259
  H        22.1212297848        5.8939557750        6.0354420329
  H        23.8584456891        5.7759739842        1.2121187274
  H        36.3646825384       32.1930852600        3.9761295571
  H        35.2154440435       30.3788109140        2.7087555838
  H        37.4569058607       27.4373167974        4.9052558591
  H        38.5869692194       29.2647799837        6.1821301231
  H        36.9717358969       29.4548619788        1.2917224948
  H        25.7400184686        8.5862339974        4.6284136811
  H        36.4502623109       32.2397089187       12.1136582408
  H        35.3335977560       30.4272156790       13.4075970643
  H        37.5260453058       27.4846838188       11.1617023562
  H        38.6172381295       29.3088900221        9.8543837300
  H        37.0078249060       29.4708191045       14.8452615079
  H        46.1083576817       26.5871280887       11.3854699422
  H        44.6680045036       35.1158388342        7.8140355685
  H        24.4783144255        3.0270798890       12.0529418373
  H        25.6533192422        4.8509580188       13.2814453119
  H        23.2611038680        7.7689986209       11.2181042908
  H        22.0988027247        5.9328823740        9.9876866026
  H        23.8743518205        5.7786050765       14.7637424524
  H        44.9525566126       34.3894156275        9.6945620971
  H        44.9004506744       34.2064911840        6.4904751225
  H        40.6648979434       33.2084968124       10.8528188360
  H        23.1516489911        1.9571944423        8.0031170939
  H        25.7802269518       19.6261642856        3.9068879094
  H        23.6200779735       19.6786548777        2.6649357213
  H        22.2879615482       16.2144985715        4.8397862415
  H        24.4538783882       16.1729417547        6.0828019752
  H        23.7053306469       17.6676790325        1.2322319249
  H        35.1224882734       15.4571551679        3.9846438160
  H        37.2315907556       15.4178301937        2.6586678699
  H        38.7155923860       18.7498133230        4.9400032347
  H        36.6004305713       18.7742531332        6.2676028897
  H        37.2149960669       17.3957422049        1.2554506260
  H        20.3209844786       17.9518891884        4.6435902753
  H        35.1365487023       15.4958760873       12.1525499732
  H        37.2728133685       15.4516438238       13.4283537835
  H        38.7143466518       18.7868779270       11.1225310427
  H        36.5742122185       18.8133677850        9.8380289383
  H        37.2241123553       17.4199253154       14.8087202369
  H        35.1520659253       26.6733173603       11.4018905126
  H        28.4291270151       21.1029026500        7.7861298773
  H        25.7455764429       19.6678671985       12.1280023569
  H        23.5746780010       19.7100091606       13.3664016059
  H        22.2815377146       16.2241701377       11.2034390403
  H        24.4548339130       16.1957506369        9.9679172550
  H        23.6951124795       17.6737798991       14.7856504807
  H        28.9032981296       21.8384527803        9.6423503705
  H        29.1047893179       21.7101085206        6.4558497216
  H        32.0815942859       18.5419679225       10.9138310311
  H        27.3777571598       18.9936432798        8.0814273252
  H        14.8532841005       19.6743403898       12.1040181480
  H        17.0227808651       19.7327273368       13.3396262347
  H        18.3015228080       16.1993902750       11.2472542269
  H        16.1283421690       16.1574928930       10.0107624447
  H        16.9122557426       17.7223196610       14.8068416903
  H        46.0700006242       15.4441404528       12.0705898855
  H        43.9430276298       15.3965103970       13.3700993882
  H        42.5468846843       18.8328151528       11.1912985300
  H        44.6733740429       18.8547843693        9.8803800774
  H        44.0053039002       17.3294068918       14.8282666263
  H        20.2936519004       17.9587172234       11.3990106496
  H        46.0523929870       15.3972492074        4.0158901679
  H        43.9230688691       15.3290090109        2.7212909429
  H        42.5013154212       18.7586553333        4.8934212618
  H        44.6382595496       18.8148137572        6.1874047064
  H        43.9966136729       17.2968136183        1.2763717800
  H        46.1980814121       26.6821444450        4.6232633660
  H        52.7408466909       21.0624892223        8.1945967363
  H        14.8683436157       19.6767765394        3.9051808682
  H        17.0619944487       19.7470204879        2.7080685215
  H        18.3046354370       16.1940890552        4.7885544420
  H        16.1137010388       16.1489777074        5.9967078509
  H        16.9215714723       17.7216109099        1.2561923088
  H        52.3214500622       21.6732165428        6.2949443984
  H        52.0125838139       21.7018264282        9.4953505701
  H        49.0656503080       18.6073580301        5.2048676733
  H        13.2464643599       19.0168036788        7.9754314209
  H        30.0000356945       12.5874534749       12.3302065225
  H        28.9776808524       10.6277557989       13.4845606135
  H        25.4233793206       11.0746582588       11.1014878111
  H        26.4609810061       13.0181258413        9.9398810405
  H        27.2356733209       11.6646033600       14.7965460554
  H        30.9985123993       22.7433417230       12.0151799866
  H        31.9948751687       24.6127812994       13.3232433272
  H        35.6775081739       24.1645022843       11.1438537267
  H        34.6658435323       22.2961131841        9.8323411611
  H        33.6509186234       23.5779019218       14.7629070095
  H        25.8549608083        8.5701835905       11.3815104951
  H        30.8972574733       22.6518934120        3.8920190223
  H        31.9011368446       24.5317389478        2.6026020459
  H        35.5093510784       24.1855166224        4.9207114859
  H        34.4856913899       22.3177816368        6.2195399096
  H        33.6018549990       23.5690950284        1.2076365262
  H        40.5927685791       17.0572299937        4.6611000399
  H        32.4957529001       14.0621131642        7.7867863415
  H        29.8988811369       12.5429217471        3.8865887761
  H        28.8839476216       10.6391165787        2.6383972859
  H        25.2457253852       11.1121832711        4.8847546131
  H        26.2820048469       12.9978780495        6.1488167690
  H        27.1910790153       11.6793226077        1.2385351620
  H        33.3652754334       14.3515156086        6.4684209482
  H        33.3331460844       14.0673986663        9.7018725134
  H        32.0126820202       18.4294021027        5.0451164313
  H        30.1685394808       14.1959135147        8.1380384821
  H        16.1186967923        2.9624014422       12.1297210365
  H        14.9529603428        4.8189898847       13.3225712931
  H        17.3638069342        7.6854988985       11.2091163985
  H        18.5132761795        5.8183059343       10.0092866186
  H        16.7525954623        5.7387470742       14.7713611965
  H        44.8281264505       32.1401890833       11.9768076060
  H        45.9372671995       30.3411983997       13.3062442250
  H        43.6816667112       27.3782025682       11.1525904876
  H        42.5991133322       29.1900753399        9.8099964433
  H        44.2301271867       29.4367947978       14.7687900700
  H        14.8490614681        8.5447933964       11.3631964226
  H        44.9000649305       32.2339152786        3.9322155469
  H        46.0247619020       30.4127993644        2.6525820021
  H        43.7621306205       27.4840302620        4.8445064969
  H        42.6444735198       29.3176659210        6.1235950503
  H        44.2682483831       29.4705732285        1.2180407803
  H        34.9972461350       26.6340701053        4.6457599283
  H        36.6052137556       35.1338978849        8.1807407509
  H        16.1444039840        3.0126422897        3.9040674943
  H        14.9746763462        4.8556859122        2.6881291818
  H        17.3950640534        7.7471807670        4.7559302119
  H        18.5422849212        5.8934142891        5.9838688434
  H        16.7642411548        5.7549871341        1.2190916835
  H        36.2797514467       34.4814525670        6.2736660826
  H        36.3814890211       34.2087730241        9.4998503781
  H        40.5781556643       33.2014986801        5.1547531940
  H        17.4721299578        1.9471047419        7.9743253990
  H        29.2955466504       19.5211676385       12.5249406143
  H        28.7260393078       18.7801205850        3.7077093996
  H        31.6316478674       15.7254513905        3.4421148656
  H        28.1293730494       18.3695805885       14.4638201874
  H        29.5355776166       15.3400199581       13.9952674567
  H        32.3433630229       17.2445675190        1.2441746984
  H        18.8532302904        0.8690982284       12.3350767033
  H        40.5280095705       35.2292280125        3.9522572913
  H        42.3224476617       34.4172778153        3.5919541371
  H        22.0879600109        0.6920049645       12.3516575034
  H        11.5969396747       18.7127996231       12.3821599111
  H        52.2649729964       18.4309161217        3.6780315365
  H        49.2547119393       16.4779469496        3.5849903606
  H        10.1500933738       15.7981738777       12.2924486783
  H        50.8497708949       17.6925725222        3.9542590604
  H        10.0457907232       17.3946164297       12.0519868958
  H        20.2142058203        0.0021989651       12.0422210519
  H        39.1833239061       36.1241111918        3.6861634560
 Ni        30.4839075810       17.6399008878        2.5833047301
 Ni        30.8560987542       16.3117741347       -0.2481069120
 Ni        29.7190509089       18.2793789052        0.1681830461
 Ni        30.0579950773       17.4991359544       13.1564784056
  O        10.6497635805       14.3650863356        5.4857119678
  O        12.6130315655       14.6573724867        6.5838403540
  O        49.1475837142       16.8460566613        7.9898175527
  O        50.3499872513       20.9365116116        5.6483765808
  O        48.3484110377       20.5933084781        6.6660226092
  O        11.0506207853       17.0542457110        6.5004308650
  O        50.3206821629       20.8817819897       10.4068140396
  O        48.3465919752       20.5867422218        9.3269972524
  O        49.5430273287       18.2484228899       10.0684789744
  O        12.3583532429       18.6245154232        7.9997182885
  O        48.6930842573       14.1485952211        6.7511717490
  O         8.2095427970       14.2105932009        9.3228206778