     573
 i =      157, E =     -4762.7830479791
  C        11.8588576690       14.0535715770        5.7415777561
  C        12.4564305517       12.8906757136        5.0233080122
  C        11.7046624902       12.1715821374        4.0818205022
  C        12.2810665421       11.1094176254        3.3894427559
  C        13.6216899860       10.7397391915        3.6170910178
  C        14.3549186172       11.4434436297        4.5904116957
  C        13.7820135468       12.5084045164        5.2819441905
  C        14.2612542551        9.6491186846        2.8436498503
  C        14.2565394971        9.6570469474        1.4219476235
  C        13.7433104548       10.7591612031        0.6680705065
  C        49.1269929208       21.2330599927        5.8796704903
  C        48.5502718849       22.4009802130        5.1524122249
  C        49.3002991549       23.0682170326        4.1713718516
  C        48.7333940174       24.1073746522        3.4381552948
  C        47.4029716506       24.5092724353        3.6669910439
  C        46.6720486342       23.8604903130        4.6805815534
  C        47.2344641764       22.8155739491        5.4099421405
  C        46.7727519421       25.5870280566        2.8697678585
  C        46.7615326254       25.5573938780        1.4480020622
  C        47.2612722600       24.4422345825        0.7044785170
  C        14.8605635048        8.5707709756        0.7086582237
  C        14.8921202437        8.5972051713        3.5202679412
  C        49.1132727159       21.2034114994       10.1453506302
  C        48.5278519201       22.3647897158       10.8725754532
  C        49.2670930365       23.0255997117       11.8654078422
  C        48.6907682070       24.0602163016       12.5968077619
  C        47.3602944051       24.4568437054       12.3586844051
  C        46.6398562939       23.8118423224       11.3352440156
  C        47.2134029839       22.7758632085       10.6035450280
  C        46.7218691443       25.5318824816       13.1496645281
  C        46.7335844809       25.5282255831       14.5713728755
  C        47.2489103134       24.4289405509       15.3277189060
  C        40.6282183082       17.1023920708       15.3092331346
  C        40.6444960019       17.1311554892       12.5005916118
  C        11.8831813805       14.0866930790       10.2854179427
  C        12.4726408348       12.9110061088       10.9897376786
  C        11.7151089447       12.1776479302       11.9157117541
  C        12.2817853201       11.0952619385       12.5841588192
  C        13.6206862598       10.7217434832       12.3524789845
  C        14.3587285270       11.4375420750       11.3919049303
  C        13.7932053376       12.5186330595       10.7191563093
  C        14.2542935311        9.6249816677       13.1228765780
  C        14.2528582290        9.6448341587       14.5447160638
  C        13.7428585188       10.7537073090       15.2918160470
  C        22.5102931553        3.2449455096        5.7533991520
  C        23.2197229987        4.3533965395        5.0547341229
  C        24.2201097314        4.0808277541        4.1101107562
  C        24.8399470769        5.1255066556        3.4293387638
  C        24.4741203012        6.4644284613        3.6725346245
  C        23.5022669358        6.7285179119        4.6546371634
  C        22.8784182481        5.6859743402        5.3342209506
  C        25.0707605436        7.5758552766        2.8977306497
  C        25.0501144128        7.5651364344        1.4761832875
  C        24.3593537413        6.5584623501        0.7293427541
  C        38.2947096977       31.9270870362        5.8524242631
  C        37.5435565909       30.8409296725        5.1533803416
  C        36.5771241946       31.1549685686        4.1846577422
  C        35.9356147665       30.1430524252        3.4748272167
  C        36.2426255332       28.7879259095        3.7090103704
  C        37.1779635707       28.4812710595        4.7161246353
  C        37.8240561206       29.4926557740        5.4252999732
  C        35.6232362492       27.7060487640        2.9054879277
  C        35.6700372796       27.7234562031        1.4823267994
  C        36.3912220456       28.7208628603        0.7534386727
  C        25.6678093927        8.6382135090        0.7567167915
  C        25.6528977778        8.6584080009        3.5694394865
  C        38.3314520652       31.9628903658       10.1594510330
  C        37.6143519679       30.8922198431       10.9094173920
  C        36.6811260898       31.2056896812       11.9095737956
  C        36.0692838966       30.1912125305       12.6431105066
  C        36.3760729357       28.8373112904       12.4001018750
  C        37.2912100053       28.5337452624       11.3732475801
  C        37.9047649139       29.5448349699       10.6407559937
  C        35.7560884969       27.7418779109       13.1794744285
  C        35.7383317496       27.7414335554       14.6023333458
  C        36.4216725391       28.7308376695       15.3763171747
  C        46.1356987400       26.6209163509       15.2815429299
  C        46.0879404862       26.5802785552       12.4736457091
  C        22.4614381576        3.2567531060       10.2587266296
  C        23.1554054825        4.3658877203       10.9818527089
  C        24.1562675565        4.0810984203       11.9245902544
  C        24.7831347802        5.1118570191       12.6211565531
  C        24.4297545218        6.4579283670       12.3981645651
  C        23.4523921794        6.7358509079       11.4235189562
  C        22.8208649990        5.7054728340       10.7275342001
  C        25.0566984231        7.5581123985       13.1737383089
  C        25.0438896588        7.5549688824       14.5967324635
  C        24.3538180230        6.5552264357       15.3524601668
  C        26.6760866493       17.8716577655        5.7286618229
  C        25.3778565483       17.9513198122        4.9938154743
  C        25.1302500205       18.9338505427        4.0221794299
  C        23.9028608493       18.9753683336        3.3597102212
  C        22.8876206560       18.0373291602        3.6428941849
  C        23.1355481315       17.0772099689        4.6422312725
  C        24.3600084263       17.0320530734        5.3038574153
  C        21.6039564729       18.0246940866        2.8946154521
  C        21.5941784503       17.9742736111        1.4728960060
  C        22.7939196338       17.8234277186        0.7081821697
  C        34.4932254442       17.2232708024        5.9882999286
  C        35.7760960289       17.1716515922        5.2288843331
  C        35.9683947262       16.1843218731        4.2490967855
  C        37.1312512824       16.1694175761        3.4834729223
  C        38.1358343784       17.1361384488        3.6832097813
  C        37.9455078861       18.1052480253        4.6867484402
  C        36.7774405537       18.1297751765        5.4450865082
  C        39.3832896532       17.1330418051        2.8857986486
  C        39.3742748362       17.1285526959        1.4641620742
  C        38.1649356168       17.2334734224        0.7072448624
  C        20.3431117951       17.9818823199        0.7723134966
  C        20.3820998782       18.0332190754        3.5852911407
  C        34.5056633642       17.2119715862       10.1099886226
  C        35.7962100667       17.1365522699       10.8489203800
  C        35.9934308530       16.1533780576       11.8297624523
  C        37.1669949853       16.1367582018       12.5785927654
  C        38.1714744978       17.0994540948       12.3621398447
  C        37.9794831961       18.0587971333       11.3499996479
  C        36.8025624500       18.0838429929       10.6077171241
  C        39.4135632076       17.1147090056       13.1655882977
  C        39.3899531960       17.1210963422       14.5868982361
  C        38.1719497284       17.2288381518       15.3299956843
  C        35.0903181925       26.6674684355       15.2979777684
  C        35.1773095196       26.6693670139       12.4886842939
  C        26.5677524482       17.8289289428       10.3253828875
  C        25.2528471088       17.8740522838       11.0296872456
  C        24.9985437271       18.8669744366       11.9878212458
  C        23.7787936262       18.8959240026       12.6576014364
  C        22.7859610890       17.9294641082       12.3982517436
  C        23.0366815217       16.9602464870       11.4098519727
  C        24.2557936489       16.9310240850       10.7351086095
  C        21.5241892251       17.9116138350       13.1744989663
  C        21.5535273921       17.9120604747       14.5961487091
  C        22.7744840835       17.7924600357       15.3326991557
  C        14.0455548696       17.8273319747       10.2913778485
  C        15.3467931876       17.8818989232       11.0227309931
  C        15.6012283019       18.8864979967       11.9695885599
  C        16.8084780108       18.9087700497       12.6654325608
  C        17.7959222859       17.9289492956       12.4373328251
  C        17.5449193682       16.9465098462       11.4606265170
  C        16.3373294495       16.9200418093       10.7657847564
  C        19.0673506548       17.9186004892       13.2028500237
  C        19.0725523493       17.9311564090       14.6255744566
  C        17.8700119296       17.8415166160       15.3949255375
  C        46.8049825279       17.2172363588       10.1568803591
  C        45.5140857735       17.1516632116       10.8992997208
  C        45.3083378197       16.1698196847       11.8806710452
  C        44.1259861761       16.1480887871       12.6151215530
  C        43.1205500251       17.1082223035       12.3896897563
  C        43.3229783900       18.0689521593       11.3806750708
  C        44.5060382124       18.0945246877       10.6470270688
  C        41.8682399205       17.1168041299       13.1784564208
  C        41.8746322949       17.1166838756       14.5998940749
  C        43.0846383997       17.2144584788       15.3561096030
  C        20.3227086964       17.9506109973       15.3273345957
  C        20.2884047445       17.8951263052       12.5146227807
  C        46.7862818854       17.2329276003        5.8870881563
  C        45.4854566648       17.1315150296        5.1671100459
  C        45.2660400695       16.1322453704        4.2068872873
  C        44.0796526449       16.1081641883        3.4780135778
  C        43.0835435676       17.0805865434        3.6920790245
  C        43.2940238222       18.0509229040        4.6894907286
  C        44.4812233163       18.0809855133        5.4139674577
  C        41.8370778498       17.1020988631        2.8960307451
  C        41.8588544524       17.1076350179        1.4752296585
  C        43.0773326462       17.2074995740        0.7327676926
  C        46.1535941258       26.6373672638        0.7263134954
  C        46.1629890391       26.6562171864        3.5359573029
  C        14.0521203838       17.8386735239        5.7115082873
  C        15.3800429728       17.9318293770        5.0302658956
  C        15.6485783818       18.9559510518        4.1088559667
  C        16.8804088562       19.0121222264        3.4588993606
  C        17.8758487575       18.0436972333        3.7018792967
  C        17.6145615835       17.0495754480        4.6631614064
  C        16.3845162053       16.9930032163        5.3172421549
  C        19.1436034544       18.0308247660        2.9272240306
  C        19.1120246531       17.9892087497        1.5050428920
  C        17.8890326335       17.8677137273        0.7711517256
  C        28.8087661503       14.0918331543       10.3904075792
  C        28.1889645849       12.9250613282       11.0831741860
  C        28.9020872828       12.2005270294       12.0499846403
  C        28.3002020060       11.1277157201       12.7026782395
  C        26.9715358167       10.7560785547       12.4132726025
  C        26.2803062418       11.4628281013       11.4127756134
  C        26.8793790342       12.5361321407       10.7585551326
  C        26.3003066589        9.6767309753       13.1727884283
  C        26.2780395029        9.7082202826       14.5938297649
  C        26.7688418322       10.8270674653       15.3392161662
  C        32.1834334252       21.2483117520       10.1348719437
  C        32.7794751680       22.4134544577       10.8540971554
  C        32.0221219108       23.0998164919       11.8164995988
  C        32.5871524495       24.1421992971       12.5446212195
  C        33.9260431465       24.5264838851       12.3343615345
  C        34.6665709818       23.8575086457       11.3414179469
  C        34.1035149921       22.8100003539       10.6138826328
  C        34.5464875223       25.6038425721       13.1395201929
  C        34.5109053759       25.5824137464       14.5613464888
  C        33.9902026114       24.4692786488       15.2921564441
  C        25.6708314114        8.6285247519       15.3118344190
  C        25.6716869748        8.6213598916       12.4986043454
  C        32.0246470237       21.1311337893        5.7252775154
  C        32.5764497430       22.3203885763        5.0153900810
  C        31.8467712916       22.9945908004        4.0228661359
  C        32.4164469348       24.0652861095        3.3355475773
  C        33.7305505195       24.4927472262        3.6185423311
  C        34.4350607325       23.8383318656        4.6473180182
  C        33.8707608453       22.7666609020        5.3316669505
  C        34.3809410208       25.5854969988        2.8589491113
  C        34.4245661221       25.5742445715        1.4370278705
  C        33.9476135378       24.4667085726        0.6682117569
  C        40.6200513356       17.1020298848        0.7537866091
  C        40.6079205497       17.1353106234        3.5630090185
  C        28.7073882355       14.0925679645        5.8218217784
  C        28.0847181696       12.9536341601        5.0861874566
  C        28.8160076721       12.2503201551        4.1161527970
  C        28.2310450929       11.1978104906        3.4179838868
  C        26.8966718592       10.8180682372        3.6647980035
  C        26.1806836592       11.5079645567        4.6613452695
  C        26.7642610751       12.5636570608        5.3603316643
  C        26.2590129212        9.7244172830        2.8925307771
  C        26.2584385239        9.7328094320        1.4702995877
  C        26.7572712396       10.8403688937        0.7152451919
  C        18.1354003783        3.1811013000       10.3172271367
  C        17.4062849999        4.2783575021       11.0158753070
  C        16.3903685480        4.0001527919       11.9432365571
  C        15.7427626859        5.0402267495       12.6066846282
  C        16.0949619014        6.3839015141       12.3671081898
  C        17.0845751044        6.6532790810       11.4035496807
  C        17.7335541840        5.6158424137       10.7385402547
  C        15.4706864435        7.4916378284       13.1301378405
  C        15.4858795815        7.4908603156       14.5518461339
  C        16.1874685329        6.4972493821       15.3049895029
  C        42.9457481114       31.8595866009       10.0727931792
  C        43.6461609186       30.7718950345       10.8167330116
  C        44.5914430508       31.0932996001       11.8030211878
  C        45.1972400377       30.0878150037       12.5507066191
  C        44.8711217426       28.7346911306       12.3357262019
  C        43.9455992057       28.4202672770       11.3222404367
  C        43.3367169295       29.4253504838       10.5741679027
  C        45.4887536813       27.6554252245       13.1389330384
  C        45.4930332698       27.6810868284       14.5606409281
  C        44.8061082172       28.6891892759       15.3073370150
  C        14.8568613700        8.5633044267       15.2642302641
  C        14.8755379893        8.5634863521       12.4515593949
  C        42.9465329139       31.9616389142        5.8089746845
  C        43.6920828768       30.8855287983        5.0958025867
  C        44.6563131253       31.1915516072        4.1231642608
  C        45.2780037988       30.1720351259        3.4054785134
  C        44.9546887657       28.8216398592        3.6433585070
  C        44.0217385682       28.5238871985        4.6546277644
  C        43.3932877168       29.5405707515        5.3667710220
  C        45.5636632014       27.7242751974        2.8579996690
  C        45.5337885578       27.7175804530        1.4366828110
  C        44.8275082593       28.7078478422        0.6837358108
  C        35.0509783886       26.6616623391        0.7431998178
  C        34.9947299376       26.6362070022        3.5545018364
  C        18.1486476275        3.2470979009        5.7066146644
  C        17.4302612575        4.3439229125        4.9971865736
  C        16.4149646003        4.0527268343        4.0736830528
  C        15.7667359108        5.0834037064        3.3983066758
  C        16.1214988529        6.4286137043        3.6210395362
  C        17.1130511122        6.7119236058        4.5781312386
  C        17.7606311182        5.6829640652        5.2579075161
  C        15.4909817184        7.5243216987        2.8486389804
  C        15.4968348305        7.5076850222        1.4275124274
  C        16.1936768267        6.5060457527        0.6808027878
  H        10.6724948706       12.4656202681        3.9048706636
  H        11.6947473252       10.5508391315        2.6630043485
  H        15.3920218071       11.1690164241        4.7719964234
  H        14.3515837055       13.0718341191        6.0171437278
  H        13.3762141961       11.6312326955        1.2014108387
  H        50.3229152167       22.7479624417        3.9864730249
  H        49.3198700974       24.6225482580        2.6805061954
  H        45.6426459062       24.1614598601        4.8639178016
  H        46.6634967138       22.2903988319        6.1721164281
  H        47.6297158022       23.5757989708        1.2461373002
  H        14.8725651920        8.5884885051        4.6085754887
  H        50.2871923465       22.7028454987       12.0602161592
  H        49.2691813627       24.5757425953       13.3602500827
  H        45.6103967902       24.1089514117       11.1462798348
  H        46.6525573841       22.2535736863        9.8320833499
  H        47.6075567691       23.5517876429       14.7967826675
  H        40.6497429861       17.1006668842       11.4127513671
  H        48.6871931896       14.0949310030        7.8001309808
  H        10.6815486097       12.4665097271       12.0929423108
  H        11.6899605744       10.5246779482       13.2966739526
  H        15.3942619709       11.1598984510       11.2061636106
  H        14.3655924691       13.0881571391        9.9907790165
  H        13.3760298931       11.6223325578       14.7531967302
  H        47.9301957475       14.2186881511        9.7106243793
  H        47.7799485016       14.3735009910        6.4954278310
  H        49.0840865673       18.5521187094       10.8672422062
  H        10.4162760229       14.1343276168        7.9986126968
  H        24.4895992838        3.0443333080        3.9196760145
  H        25.6162627135        4.9145395563        2.6970619920
  H        23.2127123729        7.7592074446        4.8486119211
  H        22.1057904974        5.8799860843        6.0740880286
  H        23.8013198365        5.7987965074        1.2688476700
  H        36.3535442784       32.2009535182        3.9884736782
  H        35.1887963554       30.3948031944        2.7249454158
  H        37.4256855051       27.4391060404        4.9072496841
  H        38.5714741669       29.2591529772        6.1801168164
  H        36.9520265963       29.4689529771        1.3060691637
  H        25.6829052398        8.6436537471        4.6574414684
  H        36.4546982226       32.2508175971       12.1080805158
  H        35.3380363426       30.4402230018       13.4089186609
  H        37.5420310823       27.4927757919       11.1803632848
  H        38.6318844868       29.3153670054        9.8656036586
  H        37.0066800302       29.4864431997       14.8597020621
  H        46.1093786851       26.5876761477       11.3856095413
  H        44.6683996058       35.1162926335        7.8139270051
  H        24.4340364272        3.0431127175       12.0933229567
  H        25.5627362266        4.8829354414       13.3446356895
  H        23.1676024113        7.7701542770       11.2414971393
  H        22.0505734196        5.9184667739        9.9899051425
  H        23.7907073647        5.7937876194       14.8206343827
  H        44.9542880222       34.3907647463        9.6953874617
  H        44.9021173305       34.2070106609        6.4905314354
  H        40.6667799220       33.2094727741       10.8530492674
  H        23.1502696481        1.9582394848        8.0054971237
  H        25.9064311198       19.6635404182        3.8018990623
  H        23.7167203920       19.7450217376        2.6136441847
  H        22.3675024725       16.3408673989        4.8699543068
  H        24.5573359705       16.2775637436        6.0612998802
  H        23.7364503118       17.6985562352        1.2328437298
  H        35.1892466676       15.4394365716        4.1007274091
  H        37.2794146288       15.3977061854        2.7310810240
  H        38.7140906207       18.8592703419        4.8435929883
  H        36.6141436255       18.8932754461        6.2021652151
  H        37.2248906347       17.3496763101        1.2390442071
  H        20.3956562482       18.0880126423        4.6725576031
  H        35.2066142012       15.4235276176       12.0056100016
  H        37.3185663136       15.3727477852       13.3379310263
  H        38.7495333666       18.8083570100       11.1799643320
  H        36.6313228630       18.8433389809        9.8486272989
  H        37.2372382487       17.3411693358       14.7876499310
  H        35.1710226973       26.6920929731       11.4005895916
  H        28.5202365669       21.0973836355        7.9890381829
  H        25.7715123256       19.6037474913       12.1943290413
  H        23.5816220608       19.6707918321       13.3951464459
  H        22.2801629108       16.2057887499       11.2038487141
  H        24.4644718729       16.1704202750        9.9865586009
  H        23.7018881165       17.6451381236       14.7872561095
  H        28.9805386644       21.7215965206        9.7848146293
  H        29.0740155211       21.7884520504        6.5866693590
  H        32.1543064691       18.5424411315       10.9271745773
  H        27.4005103666       19.0817989156        8.0778206579
  H        14.8428746438       19.6465387322       12.1438240058
  H        17.0023657092       19.6955700331       13.3912960203
  H        18.2962650007       16.1814559878       11.2757973980
  H        16.1332460476       16.1492168921       10.0263825499
  H        16.9246089874       17.7187277560       14.8743637119
  H        46.0921932721       15.4380655774       12.0612526660
  H        43.9662674852       15.3798054146       13.3684560519
  H        42.5537555100       18.8175607342       11.2026969343
  H        44.6797961924       18.8504006739        9.8847525355
  H        44.0252423267       17.3280084911       14.8247947132
  H        20.2762729627       17.9180261000       11.4263647947
  H        46.0406797848       15.3886994575        4.0337049728
  H        43.9115428957       15.3322398022        2.7343241607
  H        42.5300481621       18.8064204807        4.8606835084
  H        44.6650675165       18.8483802042        6.1618523810
  H        44.0123411261       17.3144417859        1.2749960828
  H        46.2000557232       26.6827822963        4.6233960368
  H        52.7410487241       21.0626232825        8.1946774901
  H        14.8808682572       19.7023532345        3.9168078074
  H        17.0824436498       19.8091811895        2.7464529986
  H        18.3719123160       16.2938781791        4.8616110718
  H        16.1718691374       16.2106671759        6.0419931786
  H        16.9582123182       17.7651847828        1.3208338939
  H        52.3218880326       21.6729791410        6.2943645168
  H        52.0128579957       21.7016518745        9.4957005721
  H        49.0682496113       18.6075760121        5.2037583685
  H        13.2477862746       19.0166236496        7.9784293235
  H        29.9256754742       12.4919615133       12.2754488289
  H        28.8551668515       10.5648248670       13.4500063539
  H        25.2532301576       11.1867179160       11.1830274464
  H        26.3429477187       13.1030796167       10.0017164860
  H        27.1289442217       11.6979704896       14.7998432195
  H        30.9937497357       22.7903239602       11.9877102145
  H        31.9940219482       24.6739916422       13.2853767284
  H        35.7032523286       24.1424685776       11.1737830398
  H        34.6824714402       22.2684895378        9.8692703496
  H        33.6521497636       23.5957059685       14.7420559020
  H        25.7076897831        8.5997130191       11.4108128436
  H        30.8326582909       22.6682644912        3.8017156670
  H        31.8437691217       24.5881801207        2.5725413137
  H        35.4502021584       24.1560221282        4.8762391602
  H        34.4245103949       22.2415858074        6.1061119071
  H        33.5780352955       23.5894003638        1.1905364889
  H        40.6027429755       17.1084682458        4.6509683474
  H        32.5128363298       14.1277199681        8.2540834390
  H        29.8472935361       12.5364938462        3.9259280269
  H        28.8078670130       10.6513506078        2.6750671474
  H        25.1480992920       11.2279290926        4.8596244045
  H        26.2066322315       13.1107661448        6.1168972008
  H        27.1073887358       11.7214231721        1.2453270357
  H        33.3055855377       14.2157848176        6.4546022404
  H        33.4047680469       14.4094610445        9.5991734818
  H        32.0911897585       18.4920365234        4.9983409291
  H        30.2279251724       14.1862126535        8.0828707565
  H        16.1181096487        2.9636930048       12.1295712928
  H        14.9531822205        4.8209994802       13.3222430639
  H        17.3673396193        7.6860981607       11.2106185427
  H        18.5158403229        5.8184248314       10.0109424140
  H        16.7541680594        5.7400256002       14.7714768826
  H        44.8275440996       32.1404091525       11.9773040318
  H        45.9369740190       30.3416938495       13.3067428741
  H        43.6832592690       27.3781447129       11.1519104660
  H        42.6004622046       29.1899246383        9.8091830966
  H        44.2308413786       29.4370668478       14.7690942899
  H        14.8519329652        8.5468447736       11.3633351969
  H        44.8995248303       32.2342698231        3.9314827173
  H        46.0246429352       30.4134162863        2.6520210493
  H        43.7653062010       27.4840977987        4.8465648661
  H        42.6471992801       29.3176607423        6.1255860855
  H        44.2691797164       29.4708626190        1.2183221668
  H        34.9400328680       26.6459043347        4.6416200291
  H        36.6053429088       35.1341888200        8.1805607621
  H        16.1438098070        3.0131708276        3.9039773265
  H        14.9743451914        4.8566660558        2.6882655804
  H        17.3967480577        7.7473573424        4.7549209420
  H        18.5436363280        5.8933868805        5.9825396802
  H        16.7652456623        5.7558958276        1.2192219408
  H        36.2794451407       34.4818937300        6.2731548203
  H        36.3818049582       34.2087542006        9.4991330087
  H        40.5790040345       33.2019746126        5.1538157280
  H        17.4711404615        1.9474520341        7.9740816423
  H        28.9654042172       19.2423961709       12.4320630136
  H        31.2888383256       14.8545025766        3.9599344158
  H        31.3971485127       15.5278024180       12.4591835789
  H        27.9947711693       17.7496150641       14.5150092845
  H        29.2386676817       15.0839763339       13.9127088129
  H        31.2033686785       20.2912144176        1.3546202751
  H        32.2765068625       17.4225187537        1.0230136836
  H        28.4370402423       17.2630151058        1.8806600279
  H        31.3932659462       19.3303497210       13.5978904128
  H        18.8541694465        0.8692430745       12.3352695985
  H        40.5282104180       35.2288350680        3.9520030397
  H        42.3246973633       34.4195688229        3.5901290322
  H        22.0877577213        0.6923277460       12.3513829162
  H        11.5969595527       18.7129877675       12.3823071291
  H        52.2649803422       18.4308603137        3.6769772564
  H        49.2552631816       16.4767484866        3.5845107162
  H        10.1500880495       15.7981741513       12.2931332588
  H        50.8500744334       17.6922684772        3.9543089949
  H        10.0461470529       17.3944824090       12.0520001919
  H        20.2155126794        0.0023888865       12.0418514125
  H        39.1839674731       36.1246152796        3.6866348050
 Ni        30.4780955738       16.6688241314        2.9134552852
 Ni        29.5944460150       16.3478350142       -0.0799456399
 Ni        30.0125334542       18.6532331021       -0.4992259247
 Ni        30.1017827359       17.3759881689       13.0756707106
  O        10.6500815858       14.3651178283        5.4858656480
  O        12.6133373979       14.6576914418        6.5838793127
  O        49.1480771521       16.8458681497        7.9897181010
  O        50.3503321584       20.9354949738        5.6478784421
  O        48.3486025458       20.5932763304        6.6658518719
  O        11.0518937826       17.0536209817        6.5007933355
  O        50.3210800355       20.8816673337       10.4067969151
  O        48.3468130866       20.5867187552        9.3271582703
  O        49.5442633729       18.2484658982       10.0680991938