     570
 i =      161, E =     -4745.5268041215
  C        11.8588599451       14.0536433158        5.7415205279
  C        12.4563902107       12.8906729413        5.0232284085
  C        11.7046484134       12.1716795995        4.0816319948
  C        12.2810075532       11.1095241610        3.3891716286
  C        13.6216183885       10.7397330370        3.6167719721
  C        14.3548257528       11.4433703312        4.5901727023
  C        13.7819803460       12.5083471653        5.2817682256
  C        14.2610952438        9.6489832903        2.8433546718
  C        14.2563237480        9.6567135150        1.4216261757
  C        13.7432477445       10.7588044037        0.6676171124
  C        49.1268011429       21.2331560681        5.8795367493
  C        48.5499834964       22.4011128448        5.1524592995
  C        49.3000019694       23.0684859178        4.1714966977
  C        48.7330196508       24.1075842061        3.4382635100
  C        47.4024635878       24.5091597256        3.6668794420
  C        46.6715013068       23.8602103840        4.6803348277
  C        47.2340076525       22.8153460251        5.4097075311
  C        46.7721686374       25.5868594577        2.8696314005
  C        46.7610401476       25.5572964638        1.4478682866
  C        47.2608924330       24.4421995436        0.7043307117
  C        14.8601214807        8.5702406552        0.7083985146
  C        14.8918794934        8.5970506007        3.5200431523
  C        49.1130128421       21.2033726430       10.1452879792
  C        48.5274837559       22.3647196967       10.8724952599
  C        49.2666404423       23.0255475883       11.8653797886
  C        48.6902668974       24.0601438739       12.5967707924
  C        47.3598337126       24.4568357326       12.3585087676
  C        46.6394409315       23.8117979092       11.3350568540
  C        47.2130826915       22.7758678603       10.6033484623
  C        46.7213434948       25.5318244510       13.1495251753
  C        46.7330857102       25.5281721077       14.5712374384
  C        47.2485080965       24.4289150151       15.3275722883
  C        40.6173565348       17.1512743610       15.2961744063
  C        40.6323176403       17.1801380382       12.4868839483
  C        11.8829970831       14.0865776949       10.2853162930
  C        12.4722699751       12.9105743084       10.9894363318
  C        11.7148643836       12.1775601888       11.9157972089
  C        12.2813350700       11.0949527631       12.5840957992
  C        13.6200052517       10.7208152018       12.3519887877
  C        14.3578603062       11.4361668248       11.3909181794
  C        13.7925245070       12.5174870087       10.7183285122
  C        14.2534827738        9.6239352071       13.1224390164
  C        14.2523275253        9.6440581106       14.5443101776
  C        13.7426927784       10.7531534558       15.2913481879
  C        22.5073342486        3.2455389529        5.7439935752
  C        23.2103339461        4.3487889119        5.0261929293
  C        24.2088854784        4.0651432942        4.0822632759
  C        24.8326552888        5.1005419558        3.3899724882
  C        24.4744579369        6.4441218287        3.6194712372
  C        23.4987919960        6.7193747564        4.5954973247
  C        22.8711916646        5.6857609087        5.2870341876
  C        25.0901952567        7.5483419862        2.8456170438
  C        25.0873942036        7.5387314453        1.4236315640
  C        24.3953609783        6.5388248204        0.6696710879
  C        38.2936566088       31.9277997327        5.8525504267
  C        37.5406181872       30.8436529261        5.1532773209
  C        36.5777079361       31.1608806649        4.1820609424
  C        35.9338883289       30.1510472803        3.4713533935
  C        36.2351319198       28.7952012747        3.7077397153
  C        37.1665979215       28.4854969251        4.7174543108
  C        37.8153071725       29.4946811736        5.4272614393
  C        35.6144493298       27.7135782376        2.9047232427
  C        35.6688693258       27.7243403856        1.4824947796
  C        36.3924004012       28.7196222320        0.7523942474
  C        25.7228463545        8.6069623942        0.7104616081
  C        25.6764382190        8.6262115578        3.5222874683
  C        38.3310360844       31.9617799883       10.1607848840
  C        37.6134273359       30.8902582201       10.9102379416
  C        36.6794196406       31.2025267443       11.9101596457
  C        36.0670211344       30.1873919198       12.6428112680
  C        36.3739222781       28.8334084212       12.3999518000
  C        37.2896962121       28.5310308366       11.3733152414
  C        37.9036328055       29.5427399989       10.6414319090
  C        35.7543955812       27.7371463407       13.1802568671
  C        35.7403528471       27.7363650410       14.6029389069
  C        36.4242339249       28.7270136829       15.3756289366
  C        46.1351362773       26.6208101653       15.2814277342
  C        46.0873546500       26.5802134369       12.4735311504
  C        22.4677081145        3.2556707125       10.2506843796
  C        23.1779344021        4.3644919192       10.9575330095
  C        24.1948720140        4.0784257843       11.8823311351
  C        24.8359643571        5.1091515159       12.5653121197
  C        24.4795634200        6.4550423911       12.3470238739
  C        23.4876787556        6.7344820449       11.3882813693
  C        22.8429348262        5.7040780341       10.7045098259
  C        25.1125080056        7.5512265009       13.1226435158
  C        25.0986337232        7.5399400546       14.5451857611
  C        24.3985199404        6.5410730892       15.2931524380
  C        26.6537212926       17.9169025241        5.6990981420
  C        25.3503603540       18.0181604719        4.9823345081
  C        25.1146224377       19.0003716811        4.0078577734
  C        23.8863264058       19.0529158195        3.3492226018
  C        22.8631798772       18.1257028932        3.6380619747
  C        23.0974971148       17.1715005017        4.6462662504
  C        24.3221301456       17.1151189731        5.3047764377
  C        21.5850512882       18.1092791098        2.8839684300
  C        21.5806936860       18.0605518404        1.4620570161
  C        22.7841604851       17.9216369294        0.7006836621
  C        34.3765412806       17.2987312905        5.8027727464
  C        35.6846110895       17.2323394632        5.0903074670
  C        35.9062192605       16.2486937259        4.1135448570
  C        37.1027406306       16.2175842250        3.4042735445
  C        38.1109785428       17.1703269657        3.6503739029
  C        37.8954798402       18.1294766684        4.6577295658
  C        36.6962667625       18.1643759652        5.3662599831
  C        39.3705186796       17.1704407242        2.8719044376
  C        39.3637207909       17.1825198914        1.4499297388
  C        38.1562587845       17.3147061443        0.6934492034
  C        20.3313349539       18.0565389207        0.7587561727
  C        20.3619170807       18.1025436399        3.5714772021
  C        34.4763621595       17.2529275843       10.1040567865
  C        35.7688069424       17.1940120034       10.8466359766
  C        35.9659972887       16.2280620723       11.8450829521
  C        37.1436302027       16.2147781467       12.5873041545
  C        38.1549247234       17.1664549596       12.3518122623
  C        37.9614951122       18.1108844207       11.3258001934
  C        36.7811752421       18.1300696864       10.5866583189
  C        39.4008514371       17.1790184499       13.1516809899
  C        39.3793311269       17.1879581035       14.5734100695
  C        38.1636644883       17.3158331740       15.3166091249
  C        35.0941356278       26.6623838613       15.3004783737
  C        35.1722819596       26.6652216802       12.4908786807
  C        26.5659672595       17.8277185264       10.3201173373
  C        25.2497168303       17.8869854827       11.0193164805
  C        24.9832936000       18.9130993298       11.9388154952
  C        23.7649448607       18.9524842943       12.6105933598
  C        22.7838311878       17.9656665514       12.3882448360
  C        23.0440456029       16.9644654066       11.4346427090
  C        24.2627223698       16.9233833572       10.7596910557
  C        21.5215691505       17.9616161239       13.1642640403
  C        21.5479812826       17.9841718925       14.5856061462
  C        22.7683501509       17.8851900578       15.3253267404
  C        14.0451015806       17.8308521734       10.2875100674
  C        15.3479797252       17.8953121670       11.0123368350
  C        15.6022069185       18.9131105231       11.9448352333
  C        16.8102893964       18.9457934591       12.6376843536
  C        17.7970342918       17.9632584442       12.4201314241
  C        17.5468997692       16.9679965633       11.4565948592
  C        16.3384173979       16.9314046933       10.7642799924
  C        19.0662966963       17.9632667946       13.1869200011
  C        19.0672492241       17.9893677347       14.6091955063
  C        17.8626597755       17.8984473234       15.3753263040
  C        46.8034428237       17.2177447624       10.1557490497
  C        45.5090785977       17.1560139342       10.8935518809
  C        45.2915373396       16.1735968816       11.8717006771
  C        44.1061452461       16.1601031734       12.6021279748
  C        43.1094136332       17.1295319672       12.3766071220
  C        43.3230085604       18.0897700440       11.3694298264
  C        44.5086108587       18.1068153635       10.6397411689
  C        41.8563965509       17.1516081403       13.1648819969
  C        41.8634931177       17.1508252820       14.5866486936
  C        43.0741082536       17.2332503563       15.3441872691
  C        20.3151275238       18.0204469620       15.3139863455
  C        20.2882266153       17.9324403084       12.5014481460
  C        46.7831633634       17.2342623316        5.8838220815
  C        45.4807703461       17.1365961236        5.1612913979
  C        45.2574009453       16.1417494469        4.1968444649
  C        44.0698285395       16.1217860481        3.4681572247
  C        43.0734579146       17.0942423525        3.6841908911
  C        43.2880949987       18.0600621449        4.6857315115
  C        44.4762648219       18.0858953305        5.4101353729
  C        41.8255349403       17.1231207362        2.8865874953
  C        41.8478188834       17.1343166360        1.4646891645
  C        43.0667796910       17.2234113710        0.7211599011
  C        46.1530109120       26.6372209394        0.7261921935
  C        46.1622804415       26.6559671581        3.5358305780
  C        14.0500433525       17.8409031066        5.7112990167
  C        15.3738570242       17.9432908060        5.0258297637
  C        15.6271802165       18.9723262113        4.1054738745
  C        16.8542823657       19.0420424629        3.4490933749
  C        17.8594627758       18.0826993751        3.6856873402
  C        17.6132020066       17.0830176410        4.6452471915
  C        16.3874159478       17.0127161247        5.3057325912
  C        19.1259734118       18.0881901783        2.9106484052
  C        19.0981857148       18.0526307607        1.4884509452
  C        17.8778655729       17.9255305160        0.7515647627
  C        28.8141305512       14.0852024368       10.2875174872
  C        28.2105565780       12.9196588088       10.9975461568
  C        28.9427164730       12.1966202693       11.9514011471
  C        28.3545940380       11.1271600732       12.6234391915
  C        27.0194416755       10.7540836825       12.3662872657
  C        26.3071859957       11.4616306817       11.3804420377
  C        26.8924911042       12.5317511750       10.7078042294
  C        26.3616411553        9.6674610587       13.1310714416
  C        26.3493441491        9.6844005385       14.5529041773
  C        26.8569392708       10.7903407074       15.3059023871
  C        32.1745091034       21.2369572612       10.1498909273
  C        32.7696478056       22.4026635112       10.8693835569
  C        32.0178522837       23.0870733351       11.8370901513
  C        32.5849779833       24.1315714749       12.5609694805
  C        33.9209121332       24.5203824959       12.3410534390
  C        34.6558506904       23.8538396556       11.3421930538
  C        34.0905842474       22.8046603399       10.6189299246
  C        34.5446594615       25.5984481740       13.1437377639
  C        34.5152872956       25.5759799739       14.5655721101
  C        33.9996696209       24.4614421660       15.2987229389
  C        25.7328022170        8.6048488452       15.2653587918
  C        25.7271670965        8.6174990608       12.4527415170
  C        31.9856190573       21.1992494161        5.7925259135
  C        32.5467644065       22.3689384187        5.0616228772
  C        31.8404391903       22.9926352897        4.0211326863
  C        32.4156599648       24.0514010986        3.3200927128
  C        33.7126121019       24.5098657942        3.6310126578
  C        34.3952588616       23.8992048244        4.7012013856
  C        33.8242614148       22.8436917145        5.4040947304
  C        34.3697423409       25.5932712479        2.8633244301
  C        34.4259777065       25.5731071989        1.4417630876
  C        33.9568307454       24.4605916045        0.6744772719
  C        40.6095109979       17.1454935298        0.7412607379
  C        40.5939954548       17.1591857664        3.5518277883
  C        28.7127703671       14.0908667829        5.7499955130
  C        28.1048774512       12.9323136052        5.0332213516
  C        28.8587641416       12.1987535784        4.1032834591
  C        28.2822567020       11.1358261091        3.4133208678
  C        26.9365064560       10.7773485869        3.6286789865
  C        26.1999185183       11.4945270315        4.5899772925
  C        26.7743466190       12.5598088404        5.2816840696
  C        26.3032158392        9.6842455303        2.8517233490
  C        26.3206086283        9.6929914106        1.4299552476
  C        26.8418868890       10.7952794990        0.6818909539
  C        18.1354966945        3.1795918920       10.3176372340
  C        17.4055032168        4.2767455767       11.0158168997
  C        16.3903284144        3.9983841199       11.9439368113
  C        15.7423674481        5.0384607397       12.6071349271
  C        16.0936642726        6.3822872550       12.3669351079
  C        17.0825190344        6.6517119798       11.4025909101
  C        17.7316873803        5.6143348303       10.7376413736
  C        15.4694302852        7.4901948921       13.1298853019
  C        15.4849367002        7.4898103158       14.5516280453
  C        16.1865653330        6.4963170480       15.3048945948
  C        42.9454560838       31.8596536339       10.0725744015
  C        43.6456304965       30.7721696699       10.8169854164
  C        44.5910802060       31.0933997372       11.8031746040
  C        45.1967862935       30.0877931317       12.5507763434
  C        44.8705326789       28.7347029339       12.3357429078
  C        43.9448302704       28.4204656957       11.3223661999
  C        43.3359994906       29.4256523980       10.5744073452
  C        45.4881637466       27.6553432640       13.1388485723
  C        45.4924233792       27.6809700690       14.5605514667
  C        44.8053758787       28.6889795534       15.3072693357
  C        14.8562206817        8.5625190337       15.2639346860
  C        14.8743220696        8.5620837745       12.4512450981
  C        42.9461949845       31.9614626000        5.8090258357
  C        43.6916054574       30.8853209491        5.0957396899
  C        44.6561252961       31.1912392077        4.1233553522
  C        45.2776594492       30.1716957385        3.4055876664
  C        44.9539558841       28.8213574620        3.6432330494
  C        44.0206048806       28.5236589957        4.6541339426
  C        43.3923258730       29.5404005456        5.3663490355
  C        45.5629261384       27.7239957873        2.8578748717
  C        45.5331170573       27.7173641308        1.4365727792
  C        44.8267415923       28.7075916558        0.6836658267
  C        35.0531048222       26.6591853441        0.7457520422
  C        34.9775964649       26.6501389883        3.5554413127
  C        18.1482664710        3.2467581792        5.7066703654
  C        17.4297900000        4.3436741037        4.9974555280
  C        16.4147170062        4.0524213043        4.0737183786
  C        15.7664880506        5.0830591005        3.3982694658
  C        16.1210796799        6.4283241479        3.6210220064
  C        17.1122551991        6.7116821637        4.5785141864
  C        17.7598476454        5.6827658111        5.2583619532
  C        15.4906058326        7.5240061456        2.8485117941
  C        15.4963505636        7.5071886112        1.4273663829
  C        16.1929988127        6.5053756112        0.6807090896
  H        10.6724813938       12.4657362217        3.9047140529
  H        11.6946474631       10.5510271177        2.6627015830
  H        15.3919154418       11.1689122610        4.7717877505
  H        14.3515977645       13.0717070020        6.0169876208
  H        13.3763647056       11.6310273173        1.2008633103
  H        50.3227375040       22.7485112890        3.9867897035
  H        49.3195071670       24.6228958606        2.6807174895
  H        45.6419827100       24.1609125184        4.8634727425
  H        46.6630167737       22.2900466891        6.1717765573
  H        47.6294199989       23.5757972772        1.2459875663
  H        14.8723107444        8.5884337426        4.6083542286
  H        50.2867085688       22.7027687387       12.0603030432
  H        49.2686564935       24.5756646489       13.3602343418
  H        45.6100053480       24.1089336134       11.1459907590
  H        46.6522893843       22.2536425511        9.8318062725
  H        47.6072025673       23.5517844553       14.7966376107
  H        40.6377793377       17.1478123432       11.3990563277
  H        48.6869404886       14.0953726155        7.8000224563
  H        10.6815101039       12.4668782632       12.0934776885
  H        11.6895450216       10.5247610381       13.2969556650
  H        15.3931908969       11.1580761636       11.2047103968
  H        14.3648603762       13.0866159912        9.9895971075
  H        13.3760160934       11.6218095612       14.7526765522
  H        47.9301264349       14.2192593766        9.7108360959
  H        47.7799042631       14.3742004136        6.4951593767
  H        49.0831442296       18.5519459119       10.8670371605
  H        10.4160707795       14.1343873618        7.9986319679
  H        24.4766675326        3.0262113015        3.9029797070
  H        25.6095035691        4.8776333734        2.6617406148
  H        23.2115008634        7.7526038960        4.7792815897
  H        22.0988484597        5.8915331682        6.0242424537
  H        23.8285019772        5.7815412460        1.2034366177
  H        36.3588151909       32.2076064510        3.9846470439
  H        35.1898071559       30.4049785726        2.7194817818
  H        37.4087892490       27.4423371186        4.9102034874
  H        38.5597560208       29.2587523611        6.1842529479
  H        36.9523482251       29.4688687603        1.3043971142
  H        25.6911658913        8.6143861671        4.6106701803
  H        36.4523895781       32.2473789387       12.1095183646
  H        35.3354384822       30.4362927996       13.4083642915
  H        37.5406896569       27.4902270109       11.1796672421
  H        38.6309284771       29.3130993978        9.8664759883
  H        37.0093876825       29.4817854973       14.8579879079
  H        46.1087303345       26.5876001408       11.3854933315
  H        44.6704044622       35.1162786632        7.8104888402
  H        24.4722193515        3.0399250971       12.0485003891
  H        25.6262603034        4.8806672323       13.2772377970
  H        23.2012421014        7.7690726453       11.2105491692
  H        22.0607246794        5.9168298649        9.9794743371
  H        23.8337250723        5.7856226913       14.7547908648
  H        44.9537096660       34.3890490368        9.6943122075
  H        44.9000398123       34.2058246452        6.4886685049
  H        40.6653958360       33.2096325698       10.8521582281
  H        23.1517046837        1.9581480014        8.0007650500
  H        25.9037177427       19.7120542974        3.7746933367
  H        23.7087448672       19.8190930507        2.5976421452
  H        22.3204275415       16.4465037555        4.8794015178
  H        24.5123713668       16.3630362866        6.0662271867
  H        23.7275823855       17.8105066510        1.2268768672
  H        35.1234629237       15.5174177339        3.9255916896
  H        37.2733007799       15.4495338137        2.6530642898
  H        38.6667385985       18.8715143311        4.8538263062
  H        36.5145775368       18.9198135128        6.1271897185
  H        37.2172832583       17.4482051241        1.2233262973
  H        20.3723398793       18.1540989466        4.6588738497
  H        35.1765733371       15.5051196798       12.0362016762
  H        37.2941480414       15.4607725398       13.3567216266
  H        38.7341479220       18.8539617302       11.1394701624
  H        36.6131833864       18.8770435191        9.8144021442
  H        37.2308731521       17.4486019283       14.7756528393
  H        35.1613458636       26.6888239366       11.4028208488
  H        28.4890590291       21.1328702239        7.9917454224
  H        25.7439765018       19.6711673588       12.1106972975
  H        23.5594175175       19.7515914708       13.3195615983
  H        22.2950993435       16.1953573701       11.2571436303
  H        24.4793175363       16.1376990049       10.0398000070
  H        23.6989686494       17.7471732781       14.7830163873
  H        29.0216983404       21.7048491103        9.7737360900
  H        29.0535342607       21.8414971937        6.6041170708
  H        32.0839871038       18.5273676080       10.9243844793
  H        27.3400688817       19.0921225101        8.0843876263
  H        14.8426884388       19.6739108030       12.1100786270
  H        17.0056363644       19.7416710347       13.3531584323
  H        18.2990085924       16.2014754502       11.2813688581
  H        16.1330154146       16.1512007354       10.0351650062
  H        16.9191732839       17.7713496347       14.8524279556
  H        46.0686819035       15.4350051269       12.0538590186
  H        43.9380324161       15.3916355431       13.3534632344
  H        42.5611148546       18.8456606514       11.1906728015
  H        44.6908754276       18.8629349261        9.8797459296
  H        44.0163217159       17.3369215904       14.8136730616
  H        20.2784665332       17.9389232401       11.4129684675
  H        46.0298327812       15.3966541781        4.0199242236
  H        43.9018277159       15.3476950966        2.7224906956
  H        42.5262995177       18.8169034439        4.8609727092
  H        44.6599106035       18.8509383656        6.1605587536
  H        44.0033754422       17.3189243554        1.2628360104
  H        46.1992073268       26.6824602838        4.6232737193
  H        52.7410598055       21.0627070456        8.1946102852
  H        14.8511907842       19.7117805097        3.9204883565
  H        17.0459298219       19.8433541944        2.7385865717
  H        18.3795555161       16.3349062888        4.8376826322
  H        16.1855287049       16.2267947751        6.0297427993
  H        16.9459790119       17.8188709508        1.2986560460
  H        52.3221266894       21.6733571671        6.2946643628
  H        52.0131877388       21.7020695390        9.4956329797
  H        49.0678549999       18.6073055776        5.2034577524
  H        13.2475564242       19.0171933725        7.9778020899
  H        29.9712479572       12.4877214652       12.1526084853
  H        28.9273762474       10.5656070736       13.3583298413
  H        25.2748203146       11.1866578480       11.1742402240
  H        26.3375998748       13.0961543278        9.9623379252
  H        27.2309352359       11.6582434549       14.7710119765
  H        30.9923794986       22.7750968352       12.0191552358
  H        31.9951948872       24.6597077070       13.3069829161
  H        35.6901818420       24.1421875267       11.1660855496
  H        34.6654891232       22.2661989816        9.8690478689
  H        33.6627306241       23.5861648252       14.7507326581
  H        25.7562941198        8.6042756871       11.3646022535
  H        30.8477806517       22.6286222080        3.7643810121
  H        31.8587358736       24.5369141049        2.5217701515
  H        35.3983565573       24.2387838150        4.9505639185
  H        34.3598450089       22.3545282356        6.2139413646
  H        33.5880549216       23.5829522299        1.1969903235
  H        40.5864088333       17.1245290617        4.6396727059
  H        32.5373406878       14.1806235604        8.1506462493
  H        29.8982653444       12.4735873462        3.9398678973
  H        28.8726872285       10.5658149099        2.6992084826
  H        25.1589442837       11.2295702846        4.7635235409
  H        26.2010209294       13.1304922578        6.0085186698
  H        27.2034901362       11.6671462876        1.2192103951
  H        33.3375513548       14.2962672127        6.3568040405
  H        33.4088885962       14.3919387757        9.5323113717
  H        31.9426080175       18.5727977276        4.9789142027
  H        30.2508255638       14.1952341788        7.9915540682
  H        16.1191243132        2.9617973604       12.1311459490
  H        14.9532834255        4.8190063596       13.3231766261
  H        17.3646351482        7.6845871535       11.2090042263
  H        18.5133157341        5.8170931980       10.0093940536
  H        16.7530234602        5.7388650862       14.7714492949
  H        44.8274069046       32.1404382472       11.9775207628
  H        45.9365913168       30.3415094685       13.3067914530
  H        43.6822923085       27.3783956807       11.1520067820
  H        42.5995925548       29.1903201076        9.8095377028
  H        44.2299446473       29.4367473385       14.7690506302
  H        14.8504546479        8.5452124388       11.3630270058
  H        44.8995853007       32.2339210681        3.9318228074
  H        46.0244855859       30.4129406693        2.6522774027
  H        43.7637022616       27.4839213824        4.8457399233
  H        42.6458418970       29.3175557555        6.1248004013
  H        44.2682427786       29.4704585725        1.2182880210
  H        34.9127475294       26.6687424814        4.6418166519
  H        36.6077072168       35.1345986289        8.1846669696
  H        16.1436411899        3.0128431091        3.9039844182
  H        14.9742651787        4.8561939200        2.6880783601
  H        17.3956606210        7.7471577643        4.7555296261
  H        18.5424830493        5.8932771151        5.9833687057
  H        16.7645372392        5.7552227842        1.2191547247
  H        36.2780738182       34.4834903815        6.2734390429
  H        36.3851275181       34.2075196085        9.4998040415
  H        40.5770925718       33.2014323964        5.1542378481
  H        17.4753697413        1.9455327307        7.9767178061
  H        29.2848454504       19.2226026216       12.6225218015
  H        30.3880617624       15.5858680140        3.7896971508
  H        31.5372161802       15.5051627389       12.3910957730
  H        28.3378838099       17.7083560346       14.5069765965
  H        29.8980551412       15.6639489694       14.7541273482
  H        31.5902621717       19.5406558878        1.5454507526
  H        33.4120331234       15.8968550118        1.6138949790
  H        32.4796149327       18.7766170127       15.6818291720
  H        18.9043238530        0.8518725877       12.3624533026
  H        40.5247964554       35.2296689908        3.9515189702
  H        42.3236358791       34.4183077765        3.5900787299
  H        22.0971577507        0.6991231943       12.3431275912
  H        11.5968091927       18.7128169967       12.3822212339
  H        52.2648440349       18.4307582253        3.6773095152
  H        49.2551920763       16.4763019468        3.5843903292
  H        10.1501333053       15.7983015793       12.2929963445
  H        50.8499076638       17.6924495612        3.9540744519
  H        10.0460816286       17.3947223370       12.0519216762
  H        20.2917618750        0.0045673175       12.0341155194
  H        39.1818734963       36.1252319091        3.6889190777
 Ni        30.8988597329       17.6502297157        2.7487865759
 Ni        31.8347562436       16.4690367808       -0.2528444021
 Ni        30.0109337719       18.4085493389        0.1654345549
 Ni        30.2653478004       17.2338577894       13.0784309686
  O        10.6500510318       14.3651584186        5.4859190491
  O        12.6133347410       14.6576992820        6.5838837917
  O        49.1477891772       16.8458187770        7.9895807988
  O        50.3501874582       20.9358458154        5.6479073237
  O        48.3485453016       20.5933206737        6.6658637493
  O        11.0515930548       17.0535610322        6.5007703299
  O        50.3207872237       20.8816996922       10.4068384833
  O        48.3466544970       20.5866983367        9.3270139613
  O        49.5436691856       18.2483294801       10.0680894491
  O        12.3595036907       18.6244282160        7.9993548799