     569
 i =       53, E =     -4729.4708651157
  C        11.8582398994       14.0535337173        5.7416554327
  C        12.4557235727       12.8903541533        5.0233713191
  C        11.7045253790       12.1725013870        4.0805420204
  C        12.2808425372       11.1102621161        3.3881454830
  C        13.6209236045       10.7393380587        3.6169253317
  C        14.3534706138       11.4417109972        4.5917530425
  C        13.7806200835       12.5066645261        5.2833281864
  C        14.2605595112        9.6487465971        2.8435325809
  C        14.2562431430        9.6568253367        1.4218168302
  C        13.7432960125       10.7589957606        0.6678182403
  C        49.1263157146       21.2335111121        5.8798228471
  C        48.5494669934       22.4011488784        5.1526146726
  C        49.2996145364       23.0687255630        4.1718556552
  C        48.7326100771       24.1077207417        3.4385673051
  C        47.4018909726       24.5090116094        3.6668430313
  C        46.6707379473       23.8597406128        4.6799549460
  C        47.2332341300       22.8149210589        5.4093892098
  C        46.7717987100       25.5867621431        2.8695538374
  C        46.7612298478       25.5573376642        1.4477946792
  C        47.2611369367       24.4422282294        0.7043102288
  C        14.8601683852        8.5704435791        0.7085869373
  C        14.8910294006        8.5965856051        3.5201844794
  C        49.1128461276       21.2034869456       10.1452825929
  C        48.5275372409       22.3647490309       10.8723981880
  C        49.2668489771       23.0256894111       11.8651223163
  C        48.6904921112       24.0602240553       12.5965360371
  C        47.3599799966       24.4568103855       12.3584650702
  C        46.6394458791       23.8115972777       11.3352258812
  C        47.2129969648       22.7756639497       10.6034890804
  C        46.7216140425       25.5317974740       13.1494904629
  C        46.7336220024       25.5282499572       14.5711834951
  C        47.2489415620       24.4289707311       15.3275484477
  C        40.6089274552       17.1229519935       15.2901739155
  C        40.6104529364       17.1472920833       12.4791224563
  C        11.8824957626       14.0863920277       10.2854298584
  C        12.4714531968       12.9099910595       10.9892841321
  C        11.7142842557       12.1779126750       11.9165435274
  C        12.2805996742       11.0953116190       12.5850006837
  C        13.6188568234       10.7202504118       12.3520811483
  C        14.3562414847       11.4343721322       11.3897236560
  C        13.7910877489       12.5156941767       10.7170472511
  C        14.2525860113        9.6236970081       13.1226562101
  C        14.2520342868        9.6441499338       14.5445104062
  C        13.7425487814       10.7532992543       15.2915585137
  C        22.5114265294        3.2423183424        5.7533749808
  C        23.2285602623        4.3450185949        5.0519691275
  C        24.2244270341        4.0588876711        4.1066162174
  C        24.8561563813        5.0943633780        3.4230482899
  C        24.5071493416        6.4374433124        3.6656884989
  C        23.5384833567        6.7151611417        4.6472421203
  C        22.9022064910        5.6813327041        5.3291784417
  C        25.1180563806        7.5412213088        2.8911191613
  C        25.0895616987        7.5382991596        1.4695181254
  C        24.3855293538        6.5417022076        0.7224224710
  C        38.2991916301       31.9257872353        5.8479931608
  C        37.5634668671       30.8380918006        5.1410333648
  C        36.6095856929       31.1444327791        4.1571502354
  C        35.9848270823       30.1270965733        3.4409189228
  C        36.2942808646       28.7736081290        3.6848715687
  C        37.2176967213       28.4757022739        4.7062246075
  C        37.8481710033       29.4918929275        5.4206044563
  C        35.6837102499       27.6849075146        2.8878078162
  C        35.7101510813       27.7015438616        1.4625902848
  C        36.4213478489       28.6965085089        0.7252179326
  C        25.7131223060        8.6096695931        0.7520899534
  C        25.7201311395        8.6108609885        3.5640824070
  C        38.3256412932       31.9586914832       10.1565579093
  C        37.6006945715       30.8850370691       10.8936505663
  C        36.6773640120       31.1905842625       11.9064619635
  C        36.0654316207       30.1710630495       12.6328856354
  C        36.3582989820       28.8160317129       12.3726365272
  C        37.2577819107       28.5214012800       11.3281996278
  C        37.8728531374       29.5374257332       10.6032101047
  C        35.7479492891       27.7174066931       13.1558998758
  C        35.7428071557       27.7181808360       14.5819186699
  C        36.4361305845       28.7051625989       15.3461338675
  C        46.1356825873       26.6209226101       15.2813055222
  C        46.0874905299       26.5800435295       12.4734303245
  C        22.4618608513        3.2557093901       10.2570729508
  C        23.1592977221        4.3644353844       10.9790582928
  C        24.1657932499        4.0770580470       11.9147470152
  C        24.7968729659        5.1059561079       12.6101185697
  C        24.4415156870        6.4522126685       12.3926390161
  C        23.4579008485        6.7330549986       11.4254106062
  C        22.8225294680        5.7042652357       10.7302942030
  C        25.0741767883        7.5491736011       13.1678671005
  C        25.0675677747        7.5418653047       14.5911427985
  C        24.3735744094        6.5442340903       15.3453535884
  C        26.5372287663       17.8643588387        5.7965110341
  C        25.2349400977       17.9087199040        5.0796877798
  C        24.9831149427       18.9011865638        4.1181508760
  C        23.7807832910       18.9100259267        3.4177051801
  C        22.7946704231       17.9318812610        3.6583001305
  C        23.0395697855       16.9659824839        4.6529821349
  C        24.2453180358       16.9489558330        5.3498860403
  C        21.5350363867       17.9106648280        2.8794828057
  C        21.5517010511       17.9063247240        1.4571146959
  C        22.7644169166       17.7860113184        0.7089325471
  C        34.4526419790       17.1988788357        5.9164135566
  C        35.7366542697       17.1572392018        5.1715826000
  C        35.9342768660       16.2041469081        4.1581142267
  C        37.1117550877       16.1986067048        3.4175600696
  C        38.1295573622       17.1409663769        3.6692277711
  C        37.9349503923       18.0717894408        4.7092648921
  C        36.7529863710       18.0870672945        5.4452394564
  C        39.3787496381       17.1542738791        2.8762916758
  C        39.3655073911       17.1600998599        1.4522438994
  C        38.1565563385       17.2899123458        0.7013422644
  C        20.3124814217       17.9352418780        0.7375011530
  C        20.3052818387       17.8994149671        3.5502456864
  C        34.4129449128       17.2469515080       10.1835495114
  C        35.7149120521       17.1699100136       10.8971477736
  C        35.9174404292       16.2104067895       11.9025067305
  C        37.1084886710       16.1889044950       12.6220480532
  C        38.1297118532       17.1247933001       12.3603480904
  C        37.9317348493       18.0568003546       11.3225214974
  C        36.7391556927       18.0850602077       10.6046183968
  C        39.3815186553       17.1411441478       13.1498425915
  C        39.3668523856       17.1540144926       14.5736330479
  C        38.1570437556       17.2863298802       15.3233138665
  C        35.1005533530       26.6451273067       15.2867901221
  C        35.1657215658       26.6409828678       12.4742282393
  C        26.5869267904       17.8054749470       10.3320500402
  C        25.2799789039       17.8732860518       11.0340484846
  C        25.0357522779       18.8706151658       11.9915330564
  C        23.8155328134       18.9116734270       12.6597145491
  C        22.8114671047       17.9574788248       12.3951123120
  C        23.0523256354       16.9877789563       11.4040849927
  C        24.2715224460       16.9429187858       10.7338721122
  C        21.5433467167       17.9472640956       13.1585563458
  C        21.5555378417       17.9248727951       14.5803492712
  C        22.7656412744       17.7935854922       15.3321306870
  C        14.0486061996       17.8347904378       10.2811814791
  C        15.3608550023       17.9068209688       10.9907782725
  C        15.6234236774       18.9257315897       11.9195571206
  C        16.8376493481       18.9584564622       12.6023070572
  C        17.8220092827       17.9751547257       12.3778234730
  C        17.5660215239       16.9826439501       11.4133482451
  C        16.3512542843       16.9457499741       10.7317827623
  C        19.0875751086       17.9594018342       13.1517141468
  C        19.0733971381       17.9442400047       14.5741266244
  C        17.8585896872       17.8410532925       15.3213781564
  C        46.7987153388       17.2145224095       10.1530415037
  C        45.4993824368       17.1438840620       10.8815742220
  C        45.2849675124       16.1652308729       11.8649858162
  C        44.0969854669       16.1454597331       12.5910435132
  C        43.0903342126       17.1038021887       12.3577117027
  C        43.2995588679       18.0571111272       11.3420575696
  C        44.4884818698       18.0812896471       10.6170068765
  C        41.8389282608       17.1234358310       13.1499540662
  C        41.8520852961       17.1258123934       14.5738538246
  C        43.0644612531       17.2181730656       15.3250768639
  C        20.3136166858       17.9451898297       15.2932211654
  C        20.3169505765       17.9430280882       12.4805831047
  C        46.7844516647       17.2348019556        5.8816359358
  C        45.4867557880       17.1376119198        5.1546252348
  C        45.2731218836       16.1516173501        4.1783579797
  C        44.0887227694       16.1318663854        3.4453943593
  C        43.0837636525       17.0940503366        3.6700870562
  C        43.2896852140       18.0510421741        4.6826159352
  C        44.4753435898       18.0780186216        5.4101208916
  C        41.8350423695       17.1188835716        2.8762054090
  C        41.8503634818       17.1219105677        1.4527159586
  C        43.0635762289       17.2144102886        0.7031680972
  C        46.1533785112       26.6373039738        0.7260493887
  C        46.1616514030       26.6557609711        3.5356896679
  C        14.0368852956       17.8244410528        5.7034334244
  C        15.3469282387       17.8844310937        4.9947553842
  C        15.6186187250       18.9060552872        4.0730783977
  C        16.8399119604       18.9369479910        3.4050861420
  C        17.8134658968       17.9450515893        3.6353126320
  C        17.5463440596       16.9470950102        4.5896056112
  C        16.3272927805       16.9160586643        5.2613324762
  C        19.0812198477       17.9264238946        2.8713901373
  C        19.0703318383       17.9257253313        1.4498671142
  C        17.8572670897       17.8319861416        0.6979433213
  C        28.8033453503       14.0727508557       10.3693096026
  C        28.2008612602       12.9063111703       11.0596116303
  C        28.9157264973       12.1986996239       12.0389443196
  C        28.3198534558       11.1274016803       12.6978296654
  C        26.9956688816       10.7392512288       12.4050986649
  C        26.3051083962       11.4277497477       11.3905244064
  C        26.8967693893       12.4995663584       10.7293937058
  C        26.3274131121        9.6621785621       13.1683868852
  C        26.3137322672        9.6884084188       14.5901387951
  C        26.8094222825       10.8028176210       15.3383242045
  C        32.1364514136       21.2173178936       10.1704206830
  C        32.7240963780       22.3864038219       10.8749495860
  C        31.9824582710       23.0822148158       11.8460844281
  C        32.5612055020       24.1214006460       12.5665517555
  C        33.8978940659       24.5073567391       12.3362059830
  C        34.6173375857       23.8384193000       11.3251724912
  C        34.0443553723       22.7890377499       10.6106546570
  C        34.5328837212       25.5802112976       13.1330261302
  C        34.5091183338       25.5604704991       14.5582586815
  C        33.9974988043       24.4504579445       15.2969946230
  C        25.7058401131        8.6081281605       15.3071033639
  C        25.6902501986        8.6115118654       12.4937810327
  C        32.0895908062       21.2056132523        5.8690528737
  C        32.6526800810       22.3610058812        5.1272329656
  C        31.9274694703       22.9926972855        4.1025895089
  C        32.4998411263       24.0327579130        3.3746311250
  C        33.8111687516       24.4769036903        3.6469714417
  C        34.5139112947       23.8598236600        4.7025467638
  C        33.9496236437       22.8145485112        5.4256914625
  C        34.4527002009       25.5561151543        2.8639235895
  C        34.4685118412       25.5479139464        1.4381424819
  C        33.9781153410       24.4442740486        0.6757924529
  C        40.6079018818       17.1235324871        0.7362056689
  C        40.6073405319       17.1546876796        3.5473780827
  C        28.7547573103       14.0392077891        5.8263481037
  C        28.1519885319       12.8870913940        5.1044565447
  C        28.8770292788       12.2232146170        4.1019478468
  C        28.2974590927       11.1713612544        3.3984956526
  C        26.9770042709       10.7577133150        3.6693822460
  C        26.2725276060       11.4068119010        4.7016934979
  C        26.8492991848       12.4593612389        5.4082216716
  C        26.3326277140        9.6753534364        2.8898398282
  C        26.3177227466        9.6955707810        1.4674494192
  C        26.8096158121       10.8075573485        0.7147255267
  C        18.1353008634        3.1803008253       10.3170538090
  C        17.4056066125        4.2776656665       11.0156433970
  C        16.3905532612        3.9990566810       11.9437586691
  C        15.7425716715        5.0388755733       12.6073284756
  C        16.0935672083        6.3826996839       12.3670483423
  C        17.0821415798        6.6524517076       11.4025221925
  C        17.7314649105        5.6152539715       10.7374382628
  C        15.4692246621        7.4903912202       13.1301040105
  C        15.4850881011        7.4901589433       14.5518226802
  C        16.1868548495        6.4967154324       15.3050311640
  C        42.9456880947       31.8593557276       10.0727357459
  C        43.6460226524       30.7717642043       10.8167735533
  C        44.5921374928       31.0930441871       11.8022946970
  C        45.1978115443       30.0874861393       12.5499453122
  C        44.8707858909       28.7344971978       12.3355509515
  C        43.9442289508       28.4201964071       11.3230203871
  C        43.3353742908       29.4253557038       10.5750342167
  C        45.4884692904       27.6552484247       13.1387183688
  C        45.4929086729       27.6810158458       14.5604040370
  C        44.8057914765       28.6890667112       15.3069962317
  C        14.8562224062        8.5627630400       15.2641307335
  C        14.8734524520        8.5618647489       12.4514859325
  C        42.9462144549       31.9612350010        5.8089955316
  C        43.6912256580       30.8851769438        5.0952616521
  C        44.6565396917       31.1910583219        4.1236634459
  C        45.2779955910       30.1714710781        3.4058978708
  C        44.9534454549       28.8212189943        3.6428438995
  C        44.0189898630       28.5235600096        4.6526992474
  C        43.3907334102       29.5403315364        5.3648702324
  C        45.5626295614       27.7238860761        2.8576177930
  C        45.5333135798       27.7174122006        1.4363199116
  C        44.8270172937       28.7076781121        0.6833904073
  C        35.0815777365       26.6378213358        0.7336469563
  C        35.0762792804       26.6099010259        3.5460845362
  C        18.1485016280        3.2464687215        5.7068535916
  C        17.4295964555        4.3435183336        4.9976013844
  C        16.4148791789        4.0521539028        4.0735727326
  C        15.7664836421        5.0827141808        3.3980732455
  C        16.1205437949        6.4280207987        3.6212101002
  C        17.1113107661        6.7114868318        4.5790760650
  C        17.7590410893        5.6826286910        5.2589132876
  C        15.4901578015        7.5237584920        2.8486820239
  C        15.4963669087        7.5073387450        1.4275271776
  C        16.1931864268        6.5056579372        0.6808477970
  H        10.6727713685       12.4674923692        3.9026951088
  H        11.6947930486       10.5526031543        2.6607799806
  H        15.3900041001       11.1659669056        4.7745807797
  H        14.3494403682       13.0687973952        6.0200961723
  H        13.3763299203       11.6311849722        1.2010524416
  H        50.3224233976       22.7488985550        3.9873617367
  H        49.3190438249       24.6231326317        2.6810577068
  H        45.6410036423       24.1599901143        4.8626246644
  H        46.6619506566       22.2892534329        6.1709894783
  H        47.6292595046       23.5756580615        1.2459698084
  H        14.8708039781        8.5875117896        4.6084810207
  H        50.2869236347       22.7029179222       12.0599521606
  H        49.2688045488       24.5757902870       13.3600168116
  H        45.6098825194       24.1084798417       11.1464644989
  H        46.6519289439       22.2531513922        9.8323400567
  H        47.6073745696       23.5516985267       14.7966712019
  H        40.6108403909       17.1125969291       11.3912256263
  H        48.6864525607       14.0951822163        7.7997450109
  H        10.6812425670       12.4680025527       12.0948358337
  H        11.6889668062       10.5258349082       13.2985669176
  H        15.3910886558       11.1551286660       11.2025803476
  H        14.3629175827       13.0839706636        9.9872661469
  H        13.3756193627       11.6218481015       14.7528872465
  H        47.9297702891       14.2190133900        9.7108527266
  H        47.7798724374       14.3739953162        6.4945417386
  H        49.0802206034       18.5510593413       10.8661218684
  H        10.4148529180       14.1344074700        7.9989209497
  H        24.4807589028        3.0186942416        3.9183676056
  H        25.6289618979        4.8727723567        2.6901723531
  H        23.2614675272        7.7496675354        4.8392113423
  H        22.1320978665        5.8852006342        6.0691560445
  H        23.8241908120        5.7843948313        1.2618969294
  H        36.3821847654       32.1885943704        3.9556546697
  H        35.2463613429       30.3721831040        2.6807260975
  H        37.4677093388       27.4353822452        4.9041437168
  H        38.5864277257       29.2648901451        6.1862190181
  H        36.9907038295       29.4440704276        1.2697321870
  H        25.7584865334        8.5876252251        4.6516408754
  H        36.4598588615       32.2343048485       12.1219790483
  H        35.3451947900       30.4171835674       13.4099623849
  H        37.4992741066       27.4815873890       11.1177586470
  H        38.5898520312       29.3106270274        9.8178700669
  H        37.0178650502       29.4588609120       14.8235019461
  H        46.1084436484       26.5872279684       11.3853851145
  H        44.6678078981       35.1157807260        7.8139897319
  H        24.4440460719        3.0384559542       12.0789104792
  H        25.5806246069        4.8753593340       13.3285813849
  H        23.1710409159        7.7677151884       11.2487263027
  H        22.0473086751        5.9184100048        9.9981290569
  H        23.8026660663        5.7892756359       14.8125936604
  H        44.9522790186       34.3891579872        9.6944957097
  H        44.9002931398       34.2061477134        6.4907379351
  H        40.6632631939       33.2068929097       10.8518894743
  H        23.1506743473        1.9565561803        8.0054055181
  H        25.7405809972       19.6590332679        3.9332095264
  H        23.5887846710       19.6825082010        2.6762834694
  H        22.2874063355       16.2038387785        4.8460172843
  H        24.4493826731       16.1860867826        6.0973555561
  H        23.6999308388       17.6535845003        1.2448557056
  H        35.1474739886       15.4813964915        3.9564022847
  H        37.2602572555       15.4537122591        2.6389574779
  H        38.7099476950       18.8088599920        4.9091714513
  H        36.5891881686       18.8243600658        6.2277516724
  H        37.2207306643       17.4272745002        1.2354437804
  H        20.3005900567       17.9262710527        4.6384319409
  H        35.1215324123       15.5019528058       12.1203190574
  H        37.2608406548       15.4418833992       13.3978660540
  H        38.7111449981       18.7864581179       11.1128523791
  H        36.5708772618       18.8246478503        9.8252996589
  H        37.2213031787       17.4203860200       14.7883909063
  H        35.1503271392       26.6609091898       11.3860068506
  H        28.4822057813       21.1287098671        7.9092145628
  H        25.8129792571       19.6047294953       12.1929951031
  H        23.6242741025       19.6883831061       13.3969475709
  H        22.2856689170       16.2449000266       11.1939818863
  H        24.4707797605       16.1804471130        9.9849437453
  H        23.7023334338       17.6655714442       14.7979465917
  H        28.9439699436       21.7242384330        9.7302331150
  H        29.0802882718       21.8385612218        6.5431013040
  H        32.0865857252       18.5265966535       10.9705188737
  H        27.3845569271       19.0329096279        7.9834459889
  H        14.8642596497       19.6852171142       12.0927170081
  H        17.0370658377       19.7518747375       13.3194857684
  H        18.3163743112       16.2158264134       11.2319710915
  H        16.1398196727       16.1657924494       10.0041309226
  H        16.9210494920       17.7368986756       14.7831897860
  H        46.0676411555       15.4346961954       12.0558559388
  H        43.9348691251       15.3805218284       13.3472819902
  H        42.5319744792       18.8051118987       11.1544563878
  H        44.6651249021       18.8347524674        9.8529555979
  H        44.0038960238       17.3258265703       14.7906759448
  H        20.3196390453       17.9795669685       11.3926020092
  H        46.0506049148       15.4129367898        3.9969333840
  H        43.9278598892       15.3639853877        2.6918427233
  H        42.5220579782       18.8005659462        4.8636304901
  H        44.6517078309       18.8367259252        6.1686670138
  H        44.0024880462       17.3187971155        1.2391469826
  H        46.1979327450       26.6820364393        4.6231593398
  H        52.7406698555       21.0623407913        8.1945579797
  H        14.8638714883       19.6699422609        3.8999189759
  H        17.0543387289       19.7333725354        2.6957242433
  H        18.2908345559       16.1744087107        4.7698664903
  H        16.1030753743       16.1363350413        5.9851688663
  H        16.9186037885       17.7207027815        1.2326031628
  H        52.3206680511       21.6729301137        6.2952365106
  H        52.0118233029       21.7012025486        9.4952966033
  H        49.0665932496       18.6078968592        5.2045672867
  H        13.2465201205       19.0167095269        7.9747292160
  H        29.9324868873       12.5042635876       12.2752347507
  H        28.8761806659       10.5782639392       13.4542057451
  H        25.2826310595       11.1388141372       11.1563405992
  H        26.3567661123       13.0516944287        9.9643880410
  H        27.1639216909       11.6778884889       14.8020432398
  H        30.9496767253       22.7954533162       12.0289533046
  H        31.9794314706       24.6537844760       13.3157699402
  H        35.6501184931       24.1243964105       11.1365375447
  H        34.6124165512       22.2485461113        9.8569277892
  H        33.6478298886       23.5766831160       14.7548139700
  H        25.7214349534        8.5919398065       11.4058082647
  H        30.9216602728       22.6451527725        3.8775741268
  H        31.9292329906       24.5197478362        2.5870151851
  H        35.5283327500       24.1863025827        4.9218774301
  H        34.5048589634       22.3184247549        6.2180683524
  H        33.6144830914       23.5651225668        1.1998183801
  H        40.6071502967       17.1224868096        4.6353079631
  H        32.5267537663       14.1134127396        8.2839693462
  H        29.8921508361       12.5493618174        3.8876531031
  H        28.8669055306       10.6538183604        2.6296932233
  H        25.2515975957       11.0995274786        4.9186852393
  H        26.2976617783       12.9783645589        6.1883245419
  H        27.1630612550       11.6862668649        1.2464077260
  H        33.3418542709       14.0641776929        6.4490620788
  H        33.4083603528       14.4035694381        9.6189921393
  H        31.9990650869       18.3819114070        5.1121581027
  H        30.1859868835       14.1992503117        8.0471083422
  H        16.1192463979        2.9624204377       12.1305867903
  H        14.9535975928        4.8191912875       13.3234253109
  H        17.3635842542        7.6854682796       11.2087371894
  H        18.5127359767        5.8179188811       10.0087689239
  H        16.7532101038        5.7392234477       14.7715297841
  H        44.8287626057       32.1401002436       11.9761213032
  H        45.9379958644       30.3411076398       13.3056167678
  H        43.6807634725       27.3782175688       11.1535531941
  H        42.5979313505       29.1900939575        9.8111384757
  H        44.2301980593       29.4366436027       14.7686746792
  H        14.8489697094        8.5445737831       11.3632882064
  H        44.9005892168       32.2337163170        3.9327656805
  H        46.0253764549       30.4125783833        2.6530986465
  H        43.7610976131       27.4839090020        4.8434334439
  H        42.6432871153       29.3175706101        6.1224009874
  H        44.2682401750       29.4703594376        1.2179939868
  H        35.0369692968       26.6219681291        4.6338053391
  H        36.6049537451       35.1333240373        8.1810298827
  H        16.1443038311        3.0124858486        3.9035190595
  H        14.9745314141        4.8556578666        2.6876336486
  H        17.3941470233        7.7470489219        4.7564704615
  H        18.5413391621        5.8930160854        5.9843183089
  H        16.7644823024        5.7553449724        1.2193363425
  H        36.2795808611       34.4806372534        6.2738967137
  H        36.3822467179       34.2083972114        9.5005429891
  H        40.5773288335       33.2002476519        5.1546358263
  H        17.4709746994        1.9454832312        7.9741005606
  H        29.3035947264       19.0568965916       12.9579739659
  H        28.7061141367       18.8620940072        3.7612318634
  H        31.6841348436       15.8103442214        3.5736663897
  H        31.1972382108       15.3577662543       12.4366091435
  H        28.2569977539       17.9999865715       14.5457990627
  H        29.2834448813       15.1119758154       14.8090762052
  H        32.4177393731       17.4268330722        1.3195477353
  H        18.8533170544        0.8690164745       12.3349748121
  H        40.5279460205       35.2293617477        3.9524879518
  H        42.3211315906       34.4160537741        3.5924868486
  H        22.0879321387        0.6922683689       12.3509519315
  H        11.5970427518       18.7126621403       12.3824725333
  H        52.2645172161       18.4311409446        3.6779285298
  H        49.2546174922       16.4778546008        3.5853467968
  H        10.1503151577       15.7981874525       12.2924534992
  H        50.8495025485       17.6923904299        3.9542441579
  H        10.0456708665       17.3945165950       12.0520672288
  H        20.2141930309        0.0018723872       12.0421753315
  H        39.1834073320       36.1244333741        3.6867428791
 Ni        30.5645488104       17.7401071718        2.7499007982
 Ni        30.8612781046       16.2014229185        0.1650822186
 Ni        29.8855296164       18.2850743094        0.2507247594
 Ni        30.2687905761       17.0831185413       13.5743514709
  O        10.6497177293       14.3651389601        5.4857341779
  O        12.6130430045       14.6573820231        6.5838845761
  O        49.1476935348       16.8460169448        7.9897983421
  O        50.3500661583       20.9363798675        5.6484152705
  O        48.3484655448       20.5933220910        6.6660034837
  O        11.0510629329       17.0538468101        6.5004523973
  O        50.3208656373       20.8817118528       10.4068290614
  O        48.3467030212       20.5867382394        9.3270502142
  O        49.5436100780       18.2484860632       10.0683965758
  O        12.3584269975       18.6244690400        7.9999583912
  O        48.6930054599       14.1487200961        6.7511445678