     576
 i =       97, E =     -4780.0526895645
  C        11.8587954275       14.0535392590        5.7415551143
  C        12.4563265019       12.8906355272        5.0232295050
  C        11.7045838932       12.1715851210        4.0817071233
  C        12.2809848405       11.1093984900        3.3893546597
  C        13.6216251172       10.7397800582        3.6169632030
  C        14.3548759649       11.4435230831        4.5902332189
  C        13.7819661213       12.5084911173        5.2817352584
  C        14.2611386385        9.6490965685        2.8435853986
  C        14.2565052090        9.6570381865        1.4218906396
  C        13.7433537971       10.7591840068        0.6680085556
  C        49.1268850846       21.2332019614        5.8796595023
  C        48.5501259272       22.4011883693        5.1525967811
  C        49.3001377332       23.0684782681        4.1715714434
  C        48.7332106893       24.1076363438        3.4383839842
  C        47.4027067125       24.5093414158        3.6670931152
  C        46.6717680619       23.8604953156        4.6806313083
  C        47.2342206456       22.8155755719        5.4099617845
  C        46.7724238555       25.5870145223        2.8698167627
  C        46.7613510693       25.5573758308        1.4480540267
  C        47.2612507964       24.4422593193        0.7045687918
  C        14.8604243774        8.5706882922        0.7086353176
  C        14.8918644220        8.5971327472        3.5202457690
  C        49.1132366666       21.2034265406       10.1453459108
  C        48.5278470712       22.3647931285       10.8725530473
  C        49.2670205836       23.0253874634       11.8655808734
  C        48.6906987599       24.0599535924       12.5970418687
  C        47.3603471170       24.4568504637       12.3586866921
  C        46.6400023463       23.8120838675       11.3350257512
  C        47.2135523720       22.7761729829       10.6032444046
  C        46.7218785456       25.5318136914       13.1497018951
  C        46.7335506069       25.5281581643       14.5714083307
  C        47.2489491617       24.4289351802       15.3278062774
  C        40.6330555351       17.1119991923       15.3244795446
  C        40.6546713773       17.1570630206       12.5155767280
  C        11.8830560928       14.0865939720       10.2855219801
  C        12.4724680404       12.9108853659       10.9898328375
  C        11.7148924945       12.1774733985       11.9157235302
  C        12.2815354248       11.0950355984       12.5841202559
  C        13.6204623181       10.7215847068       12.3524924812
  C        14.3585373909       11.4374048562       11.3919705646
  C        13.7930508571       12.5185551894       10.7192987228
  C        14.2540444772        9.6247894279       13.1228566011
  C        14.2527534926        9.6447372173       14.5446883024
  C        13.7428548596       10.7536759380       15.2917560089
  C        22.5106985412        3.2457245936        5.7520702828
  C        23.2200886914        4.3548205906        5.0515550933
  C        24.2159509047        4.0824907231        4.1019303425
  C        24.8350492022        5.1271070045        3.4196324100
  C        24.4739904705        6.4667918357        3.6662245241
  C        23.5070025383        6.7306370075        4.6533945595
  C        22.8835254108        5.6880471825        5.3340596470
  C        25.0677905283        7.5791429513        2.8885769821
  C        25.0338942908        7.5725880750        1.4668794488
  C        24.3403583174        6.5664648598        0.7216176661
  C        38.3027687988       31.9301274492        5.8493980733
  C        37.5732940975       30.8406737464        5.1402978155
  C        36.6121228987       31.1442440462        4.1641005365
  C        35.9952313666       30.1236698905        3.4461433674
  C        36.3252612357       28.7749174691        3.6829074322
  C        37.2566976416       28.4787173248        4.6957160945
  C        37.8775098242       29.4979895469        5.4126656449
  C        35.7233765625       27.6833577994        2.8856658941
  C        35.7521034949       27.7002385466        1.4644159539
  C        36.4565018445       28.7038253505        0.7273901226
  C        25.6428065222        8.6490605117        0.7447950088
  C        25.6606356980        8.6586866561        3.5565551776
  C        38.3288387991       31.9625942948       10.1561334360
  C        37.6068857701       30.8900623124       10.8982157312
  C        36.6774576573       31.1998291683       11.9028665971
  C        36.0667871706       30.1820286849       12.6327817801
  C        36.3714342544       28.8292987774       12.3813822937
  C        37.2785562569       28.5294976110       11.3466541750
  C        37.8913338346       29.5437741567       10.6180031383
  C        35.7628621605       27.7308108548       13.1656284942
  C        35.7721222774       27.7246705700       14.5875576676
  C        36.4656398701       28.7158109306       15.3506877762
  C        46.1355334047       26.6207953526       15.2815402327
  C        46.0879739355       26.5802023546       12.4736466663
  C        22.4592216353        3.2555233143       10.2568629659
  C        23.1492472324        4.3664029135       10.9791442541
  C        24.1504646905        4.0851489357       11.9220489761
  C        24.7730063543        5.1190257144       12.6172755504
  C        24.4139141668        6.4627112593       12.3911462782
  C        23.4362999310        6.7372584061       11.4163444283
  C        22.8090105303        5.7038037039       10.7219907606
  C        25.0356974808        7.5655854365       13.1649282256
  C        25.0180342396        7.5649471458       14.5873968376
  C        24.3303599703        6.5644648836       15.3445904854
  C        26.6227412696       17.8614664391        5.7866572313
  C        25.3167417288       17.8972170849        5.0568405151
  C        25.0607504342       18.8851998249        4.0929510389
  C        23.8477569953       18.9035134088        3.4069349939
  C        22.8535687486       17.9367660832        3.6619995134
  C        23.1071162960       16.9697955382        4.6531070234
  C        24.3221923675       16.9462917452        5.3369557338
  C        21.5792431577       17.9234450876        2.8993583443
  C        21.5782437607       17.9001144147        1.4768264159
  C        22.7825735419       17.7678639513        0.7158021975
  C        34.4348515104       17.1939991275        5.9170895095
  C        35.7276561763       17.1393833610        5.1738235540
  C        35.9301937007       16.1680620818        4.1811905284
  C        37.1115071024       16.1508097909        3.4451890681
  C        38.1212000462       17.1033490950        3.6827980550
  C        37.9212831172       18.0550614421        4.7007216316
  C        36.7373562675       18.0778433717        5.4338680261
  C        39.3757947369       17.1091289704        2.8975360112
  C        39.3726677659       17.1227693484        1.4760699454
  C        38.1653713329       17.2395053920        0.7173734025
  C        20.3313797919       17.9244418027        0.7688864888
  C        20.3546427078       17.9309809704        3.5822168459
  C        34.4782296768       17.2460664350       10.1791384572
  C        35.7797580601       17.1727105591       10.9047296387
  C        35.9929780536       16.1824336086       11.8752429747
  C        37.1783225016       16.1593509390       12.6043317658
  C        38.1774970861       17.1266146466       12.3822742972
  C        37.9697317535       18.0934881661       11.3811979788
  C        36.7825118142       18.1209188997       10.6542108257
  C        39.4232765654       17.1389732845       13.1788284709
  C        39.3972151717       17.1377913548       14.5995846216
  C        38.1780136276       17.2439525845       15.3406918962
  C        35.1416479352       26.6453415335       15.2913306793
  C        35.1735140695       26.6599205114       12.4823693246
  C        26.5694288781       17.8270390051       10.3256869375
  C        25.2547244217       17.8705226566       11.0320631852
  C        24.9921279165       18.8710289715       11.9800681122
  C        23.7747327227       18.8943813905       12.6546258482
  C        22.7904281638       17.9174071995       12.4041561157
  C        23.0474173291       16.9418520949       11.4239663347
  C        24.2658729784       16.9160189274       10.7482367241
  C        21.5269674845       17.8982806073       13.1770172917
  C        21.5514467728       17.8861744806       14.5984287336
  C        22.7695588304       17.7615046997       15.3394043585
  C        14.0465666700       17.8288707848       10.2891376010
  C        15.3504761490       17.8858653479       11.0150057557
  C        15.6071559844       18.8896706791       11.9620416199
  C        16.8157847892       18.9104379903       12.6555617274
  C        17.8019821804       17.9301568728       12.4243852359
  C        17.5499776390       16.9505491856       11.4452465639
  C        16.3409317752       16.9252320037       10.7531814715
  C        19.0709663230       17.9122822535       13.1934722451
  C        19.0701597067       17.9098434745       14.6159865013
  C        17.8632226346       17.8155678735       15.3778799140
  C        46.8064325683       17.2193648442       10.1596120358
  C        45.5186057705       17.1594582130       10.9083255302
  C        45.3139096901       16.1810310051       11.8933417380
  C        44.1341816935       16.1641900198       12.6323431373
  C        43.1301301739       17.1261137416       12.4079182840
  C        43.3324974057       18.0848999200       11.3969376556
  C        44.5127733021       18.1054079581       10.6587217212
  C        41.8773679686       17.1361596822       13.1961813348
  C        41.8809781541       17.1279964508       14.6179108195
  C        43.0888924465       17.2185304652       15.3785691390
  C        20.3172572624       17.9161327483       15.3238354689
  C        20.2948243995       17.8905613660       12.5107364421
  C        46.7851691048       17.2297571807        5.8909807686
  C        45.4806433161       17.1199511057        5.1789732216
  C        45.2628999053       16.1194148191        4.2197687622
  C        44.0743313894       16.0897586570        3.4947313332
  C        43.0745710697       17.0573872858        3.7126696966
  C        43.2818900589       18.0265684346        4.7117708772
  C        44.4717808974       18.0628122056        5.4315624059
  C        41.8295281377       17.0794327014        2.9143989688
  C        41.8565904168       17.0976146208        1.4937376542
  C        43.0772576223       17.2018007604        0.7550889929
  C        46.1533150721       26.6372417127        0.7262996938
  C        46.1625240219       26.6561681218        3.5359365992
  C        14.0460841874       17.8319211435        5.7089579832
  C        15.3676824271       17.9063766511        5.0195549464
  C        15.6429382814       18.9225527889        4.0922745807
  C        16.8725510807       18.9593387774        3.4384151840
  C        17.8546911573       17.9789225892        3.6854595255
  C        17.5864140483       16.9920531923        4.6514873465
  C        16.3590095904       16.9548634583        5.3091066720
  C        19.1217575770       17.9518343196        2.9159408385
  C        19.0966719744       17.9285603810        1.4943828348
  C        17.8761743017       17.8238778450        0.7540935177
  C        28.8086437743       14.0940372160       10.3933204567
  C        28.1872999259       12.9253037888       11.0818940685
  C        28.8900036986       12.2026477082       12.0570302228
  C        28.2803537512       11.1318979100       12.7059253509
  C        26.9541986095       10.7610979537       12.4039313637
  C        26.2737844525       11.4651421890       11.3946552933
  C        26.8809337185       12.5360972892       10.7444950245
  C        26.2747990270        9.6856819580       13.1610582533
  C        26.2419294476        9.7229392027       14.5809760760
  C        26.7172546367       10.8505509150       15.3226263590
  C        32.1800843960       21.2437733098       10.1414660075
  C        32.7759561398       22.4099104864       10.8598064693
  C        32.0265970978       23.0869443592       11.8342076933
  C        32.5961826288       24.1257496642       12.5640275448
  C        33.9309357873       24.5149903724       12.3403661837
  C        34.6628609658       23.8565779014       11.3342886748
  C        34.0954405309       22.8124004985       10.6061034304
  C        34.5584821245       25.5902451012       13.1416976207
  C        34.5493028002       25.5619329298       14.5633557562
  C        34.0388673558       24.4474837920       15.3014372544
  C        25.6404513719        8.6413497463       15.3005930931
  C        25.6526463593        8.6262581472       12.4879539510
  C        32.1023081077       21.2280801609        5.8826043801
  C        32.6948168917       22.3785780977        5.1380098257
  C        31.9580350683       23.0458086547        4.1473729186
  C        32.5393477108       24.0744217637        3.4097769446
  C        33.8712446329       24.4671243934        3.6462198423
  C        34.5910723893       23.8142854507        4.6650419356
  C        34.0146209920       22.7792173408        5.3967849249
  C        34.5109368522       25.5486800255        2.8621633767
  C        34.5240912161       25.5411506241        1.4403237403
  C        34.0258057519       24.4378692678        0.6782858089
  C        40.6201424315       17.1002245524        0.7688348668
  C        40.5983355126       17.1039229688        3.5782641413
  C        28.7382839544       14.0754448153        5.8109425901
  C        28.1105354584       12.9492157281        5.0552359972
  C        28.8267850272       12.2624208556        4.0624617181
  C        28.2312217867       11.2135535875        3.3648377392
  C        26.9046933043       10.8211686181        3.6385901148
  C        26.2045647641       11.4995943191        4.6533205138
  C        26.7967564797       12.5516644644        5.3492365596
  C        26.2564017982        9.7284050244        2.8753247126
  C        26.2338972551        9.7447320518        1.4544410961
  C        26.7101540713       10.8610626028        0.6979207545
  C        18.1353670247        3.1810352886       10.3172009564
  C        17.4061210006        4.2782732644       11.0158153886
  C        16.3904277929        3.9999686878       11.9433823971
  C        15.7427412212        5.0399972326       12.6068357640
  C        16.0946861047        6.3837091164       12.3671143311
  C        17.0840296719        6.6531737973       11.4032926517
  C        17.7330639296        5.6157887004       10.7382668110
  C        15.4704093062        7.4914299148       13.1301429898
  C        15.4856659292        7.4907034123       14.5518491921
  C        16.1871877482        6.4970634945       15.3050153309
  C        42.9459309888       31.8595226508       10.0728838602
  C        43.6463093030       30.7718824180       10.8168539151
  C        44.5918009196       31.0932123283       11.8029606979
  C        45.1974982218       30.0876675007       12.5506354669
  C        44.8711365647       28.7345950285       12.3357199959
  C        43.9453723837       28.4202528565       11.3224503073
  C        43.3365591015       29.4253895034       10.5744058957
  C        45.4887014059       27.6552923616       13.1389151749
  C        45.4928354215       27.6809209424       14.5606081428
  C        44.8057193096       28.6889514667       15.3072290451
  C        14.8567060249        8.5631916017       15.2642134045
  C        14.8752448604        8.5632670201       12.4515530391
  C        42.9464868995       31.9616307762        5.8089898129
  C        43.6917522514       30.8855367503        5.0955111349
  C        44.6562828491       31.1914486721        4.1231471501
  C        45.2778170061       30.1718593114        3.4054347579
  C        44.9541188630       28.8215304440        3.6431292482
  C        44.0207272697       28.5238662240        4.6539950082
  C        43.3924538947       29.5406288458        5.3661618808
  C        45.5631470902       27.7241246067        2.8578868101
  C        45.5333720834       27.7174140771        1.4365904483
  C        44.8269950703       28.7075973325        0.6836236154
  C        35.1303164985       26.6337237560        0.7362494339
  C        35.1218622556       26.6062922901        3.5461249848
  C        18.1484321613        3.2469991693        5.7065280401
  C        17.4298854039        4.3438117920        4.9972589294
  C        16.4147334246        4.0525748785        4.0736112566
  C        15.7664590906        5.0832409050        3.3982523200
  C        16.1210983708        6.4284690300        3.6210841613
  C        17.1124174161        6.7118162953        4.5784157830
  C        17.7600413496        5.6828729620        5.2581612796
  C        15.4906653814        7.5241891755        2.8486506406
  C        15.4965972341        7.5075657068        1.4275233583
  C        16.1933697783        6.5058691079        0.6808268376
  H        10.6723937680       12.4655827989        3.9048329208
  H        11.6946784313       10.5507870326        2.6629290528
  H        15.3919973581       11.1691339063        4.7717613646
  H        14.3515043323       13.0719046706        6.0169683576
  H        13.3763550516       11.6313020754        1.2013399573
  H        50.3228284950       22.7483968203        3.9867906885
  H        49.3196999734       24.6228913216        2.6808007698
  H        45.6423076576       24.1613328017        4.8638731924
  H        46.6632403268       22.2903519799        6.1720911823
  H        47.6297911012       23.5758867380        1.2462627807
  H        14.8721823040        8.5883955556        4.6085530840
  H        50.2870262671       22.7024433557       12.0605611999
  H        49.2690762261       24.5753352955       13.3606074413
  H        45.6106690366       24.1094821950       11.1458225648
  H        46.6528058742       22.2541358539        9.8315405296
  H        47.6077275374       23.5518105672       14.7969165226
  H        40.6617994094       17.1320195093       11.4275911111
  H        48.6871978744       14.0948901416        7.8000488884
  H        10.6813253957       12.4663253855       12.0929184358
  H        11.6897166663       10.5244353425       13.2966293158
  H        15.3941004925       11.1598255179       11.2063197111
  H        14.3654805155       13.0881768887        9.9910374049
  H        13.3760736055       11.6223015521       14.7531067199
  H        47.9302239842       14.2183287768        9.7107711574
  H        47.7801359902       14.3738901755        6.4953960580
  H        49.0842266314       18.5526342546       10.8674778460
  H        10.4161810364       14.1342926334        7.9986797930
  H        24.4826605410        3.0458440988        3.9082378237
  H        25.6071056606        4.9148470644        2.6831984466
  H        23.2201130595        7.7614474671        4.8507718155
  H        22.1144594550        5.8830892294        6.0774241252
  H        23.7859590000        5.8051398760        1.2625867374
  H        36.3735936241       32.1873325058        3.9702527554
  H        35.2493710330       30.3618700854        2.6910208482
  H        37.5185797312       27.4397943156        4.8851405333
  H        38.6224310049       29.2779262695        6.1736532092
  H        37.0216250449       29.4534913560        1.2735073223
  H        25.7056400182        8.6393500805        4.6440084792
  H        36.4546203662       32.2442578918       12.1090434080
  H        35.3404796443       30.4274580974       13.4044441865
  H        37.5254056918       27.4890389155       11.1460609440
  H        38.6142208007       29.3175659344        9.8380044954
  H        37.0389318641       29.4741967947       14.8253234748
  H        46.1094458019       26.5876243634       11.3856128978
  H        44.6682261587       35.1162075683        7.8139358433
  H        24.4311728973        3.0481273589       12.0917656194
  H        25.5530406605        4.8949820518       13.3417822976
  H        23.1483701470        7.7705249482       11.2335494304
  H        22.0379096781        5.9118010584        9.9838639883
  H        23.7674758906        5.8021314633       14.8137573330
  H        44.9538029357       34.3903923406        9.6951912510
  H        44.9016852849       34.2068585760        6.4905286395
  H        40.6659822336       33.2089995738       10.8530335493
  H        23.1501861245        1.9580993282        8.0048140177
  H        25.8252854371       19.6341085267        3.8988688634
  H        23.6542041568       19.6768693970        2.6665846447
  H        22.3521131631       16.2137268788        4.8590808759
  H        24.5273601187       16.1873547988        6.0884478398
  H        23.7226982836       17.6389653592        1.2442356075
  H        35.1447736246       15.4390182771        3.9962047529
  H        37.2683477098       15.3900969674        2.6835642050
  H        38.6935752485       18.7983835911        4.8875198964
  H        36.5655480682       18.8264855170        6.2038047262
  H        37.2239913878       17.3540909426        1.2475468540
  H        20.3621223116       17.9722286673        4.6700442557
  H        35.2108805277       15.4479158639       12.0526305081
  H        37.3446431001       15.3875717831       13.3527478691
  H        38.7358803383       18.8461235009       11.2066812056
  H        36.5995141819       18.8831701376        9.9004502381
  H        37.2461928815       17.3574328334       14.7940897862
  H        35.1465882691       26.6855504638       11.3946516552
  H        28.5027558111       21.0874488005        7.9729144276
  H        25.7544514454       19.6233583576       12.1694171713
  H        23.5706837623       19.6741578950       13.3852112038
  H        22.2957740724       16.1806215528       11.2251949413
  H        24.4807314790       16.1508201111       10.0061334676
  H        23.6996374773       17.6276254095       14.7950990407
  H        28.9995735256       21.7245039406        9.7634174626
  H        29.1703803041       21.7381915673        6.6258986452
  H        32.1122212871       18.5662846752       10.9741620036
  H        27.3958136804       19.0731460444        8.0833181543
  H        14.8490510049       19.6492824832       12.1392385030
  H        17.0110982307       19.6952626378       13.3831824856
  H        18.3009509224       16.1858093023       11.2577286508
  H        16.1350689323       16.1556586410       10.0130152711
  H        16.9199599205       17.7035522556       14.8512138442
  H        46.0962293387       15.4472453793       12.0724629428
  H        43.9750169162       15.3973109559       13.3872094383
  H        42.5650577013       18.8356249088       11.2201775203
  H        44.6859342590       18.8594080520        9.8944596923
  H        44.0313415624       17.3341524837       14.8509401341
  H        20.2884744720       17.9215446315       11.4226421717
  H        46.0411435506       15.3804639163        4.0432123600
  H        43.9080567548       15.3142533904        2.7502004836
  H        42.5141706043       18.7774692965        4.8864038847
  H        44.6542233709       18.8304354620        6.1795729856
  H        44.0109067183       17.3033844425        1.3006751901
  H        46.1994365530       26.6827486551        4.6233784919
  H        52.7412565781       21.0626572413        8.1946985237
  H        14.8833894298       19.6772694325        3.9004877000
  H        17.0848793963       19.7503416600        2.7223475663
  H        18.3359457172       16.2287769944        4.8502996653
  H        16.1368298559       16.1798569618        6.0386145843
  H        16.9425717268       17.7183479061        1.2984330164
  H        52.3226081275       21.6733393365        6.2942138701
  H        52.0133650239       21.7021876727        9.4956360225
  H        49.0674967051       18.6075677095        5.2040756499
  H        13.2477579131       19.0161434283        7.9774123432
  H        29.9100393441       12.4964142497       12.2941810341
  H        28.8261760276       10.5701748485       13.4608239525
  H        25.2488597075       11.1894598577       11.1550485627
  H        26.3531133778       13.1022154898        9.9810833666
  H        27.0605773391       11.7268495037       14.7809548895
  H        31.0016333838       22.7718052695       12.0143214953
  H        32.0101514425       24.6503952110       13.3154775567
  H        35.6958410097       24.1484648526       11.1560931379
  H        34.6657767217       22.2784220882        9.8494521869
  H        33.6814388585       23.5796116919       14.7546705406
  H        25.6952378199        8.5989311589       11.4005548728
  H        30.9311429359       22.7395470141        3.9624410121
  H        31.9614440441       24.5924765863        2.6475046632
  H        35.6220524895       24.1068581713        4.8531174760
  H        34.5755400112       22.2524929410        6.1653027742
  H        33.6588232252       23.5622425375        1.2062302985
  H        40.5900483237       17.0656273468        4.6658858472
  H        32.5150087075       14.1459594298        8.2476040856
  H        29.8563775944       12.5528277721        3.8644317946
  H        28.7954754061       10.6743863407        2.6068766497
  H        25.1777841921       11.2117169231        4.8698745157
  H        26.2538642069       13.0894578309        6.1229338681
  H        27.0461422918       11.7464839188        1.2290659585
  H        33.3017824635       14.2164255305        6.4514117222
  H        33.4100072320       14.3986915596        9.6036793136
  H        32.1162556742       18.5380749890        5.1814557508
  H        30.2286109175       14.1899946877        8.0704705904
  H        16.1183243173        2.9634800879       12.1298117283
  H        14.9532813647        4.8206707571       13.3225008770
  H        17.3664871443        7.6860358926       11.2101495391
  H        18.5150356922        5.8184110339       10.0103476398
  H        16.7537865101        5.7397547838       14.7715202430
  H        44.8280483095       32.1402961585       11.9771822286
  H        45.9373429361       30.3414188507       13.3066015910
  H        43.6827531187       27.3781769505       11.1522652779
  H        42.5999942274       29.1900441170        9.8096957298
  H        44.2303538748       29.4367070897       14.7689198867
  H        14.8515233585        8.5465624593       11.3633321200
  H        44.8997776654       32.2341309841        3.9316429083
  H        46.0246794446       30.4130891440        2.6521545138
  H        43.7638662296       27.4841295288        4.8456509238
  H        42.6460394716       29.3178186221        6.1246844112
  H        44.2684886870       29.4704905005        1.2182012397
  H        35.0816803842       26.6171691974        4.6336920368
  H        36.6050276126       35.1340778956        8.1806540344
  H        16.1436515159        3.0130067310        3.9038312350
  H        14.9741655406        4.8564450946        2.6881163509
  H        17.3958922540        7.7472828299        4.7553656820
  H        18.5428474029        5.8933028256        5.9830006992
  H        16.7648031348        5.7556269519        1.2192595101
  H        36.2782877608       34.4826793198        6.2731330907
  H        36.3806933714       34.2092765713        9.4997117331
  H        40.5804301695       33.2025699165        5.1535255842
  H        17.4705654007        1.9473855457        7.9740836403
  H        29.0226625665       19.4107743150       12.4903302611
  H        29.5799144496       19.6871596581        3.6221561450
  H        30.7858847951       15.6028048691        3.7034947337
  H        31.2828761256       15.5567570954       12.4870692814
  H        27.8634107214       17.7909736926       14.5266874861
  H        29.2424327530       15.3386897710       14.5503063405
  H        31.2788387394       19.4155389039        1.3846189490
  H        32.5312091241       17.0808217563        1.5857012916
  H        27.8230165324       14.4663984638        1.6737354114
  H        34.4287317153       18.5767343656       15.4107603870
  H        18.8535129890        0.8690340222       12.3353055422
  H        40.5278312239       35.2292146246        3.9520520444
  H        42.3245531692       34.4194830715        3.5904073130
  H        22.0878119124        0.6920732770       12.3515440983
  H        11.5968804415       18.7128130937       12.3824706616
  H        52.2650528301       18.4312989655        3.6772555580
  H        49.2555156909       16.4768943326        3.5843249341
  H        10.1496337924       15.7982882490       12.2931503163
  H        50.8502715903       17.6924222733        3.9542535618
  H        10.0458546190       17.3945184349       12.0519505354
  H        20.2147925359        0.0022817163       12.0419705335
  H        39.1836056745       36.1245300772        3.6864720476
 Ni        30.6979699130       17.8115006497        2.9916909856
 Ni        30.8172119867       16.5676326735       -0.0889541584
 Ni        29.4989616960       18.5166896159        0.1602515798
 Ni        30.0990417548       17.4238785108       13.0086926326
  O        10.6499640086       14.3650759516        5.4858431399
  O        12.6131934259       14.6575052881        6.5839021066
  O        49.1480200275       16.8459093348        7.9897067093
  O        50.3502862768       20.9358903339        5.6480532957
  O        48.3485588909       20.5933303425        6.6658928358
  O        11.0517475025       17.0538748223        6.5007195997
  O        50.3209998111       20.8816720059       10.4068561718
  O        48.3467351542       20.5867707992        9.3271271281