     566
 i =      111, E =     -4712.2336184452
  C        11.8584764737       14.0535981649        5.7415720628
  C        12.4559199203       12.8904375093        5.0233995933
  C        11.7043114597       12.1717146173        4.0815189761
  C        12.2806458232       11.1094532962        3.3891860552
  C        13.6211161299       10.7393937258        3.6171252704
  C        14.3541684937       11.4427495033        4.5908385704
  C        13.7813271453       12.5077757383        5.2823297559
  C        14.2607144967        9.6487380765        2.8437271033
  C        14.2562041366        9.6567160847        1.4220131637
  C        13.7431002120       10.7588627446        0.6680970612
  C        49.1264726129       21.2332657947        5.8797876888
  C        48.5496154528       22.4011768075        5.1527599495
  C        49.2997592304       23.0686754336        4.1719622390
  C        48.7328337062       24.1077698880        3.4387123688
  C        47.4022227490       24.5092690921        3.6671564605
  C        46.6711366585       23.8601724689        4.6804263348
  C        47.2335561157       22.8152625228        5.4098180028
  C        46.7720590608       25.5869802278        2.8698273621
  C        46.7610988197       25.5573517984        1.4480619765
  C        47.2610123211       24.4422227514        0.7046085519
  C        14.8602835555        8.5704448109        0.7087488882
  C        14.8914461272        8.5967385604        3.5203615730
  C        49.1127740586       21.2032368505       10.1452352307
  C        48.5272751364       22.3644869925       10.8724946957
  C        49.2665796249       23.0253608863       11.8652521964
  C        48.6902682386       24.0599098255       12.5967302952
  C        47.3597529965       24.4564773634       12.3587306906
  C        46.6392119534       23.8113474419       11.3354412122
  C        47.2127420013       22.7754161005       10.6036522634
  C        46.7214053045       25.5315565753       13.1497133412
  C        46.7332653320       25.5280477861       14.5714219467
  C        47.2486817924       24.4288512523       15.3278441808
  C        40.6068303295       17.0380053893       15.3281832301
  C        40.6380427898       17.0957933943       12.5172896300
  C        11.8828170988       14.0865694369       10.2854063919
  C        12.4721600655       12.9106330972       10.9896078098
  C        11.7147974879       12.1776387098       11.9160016078
  C        12.2814007714       11.0951952374       12.5844666408
  C        13.6201191119       10.7212230849       12.3524187409
  C        14.3578915068       11.4365121620       11.3912430475
  C        13.7924355052       12.5176554128       10.7185059838
  C        14.2538099777        9.6245202268       13.1228802022
  C        14.2525917694        9.6444891449       14.5447392190
  C        13.7426364449       10.7533840825       15.2918396723
  C        22.5226484420        3.2494715017        5.7580009243
  C        23.2577130248        4.3577465445        5.0758550589
  C        24.2774716788        4.0801727864        4.1526040603
  C        24.9225735917        5.1199222773        3.4854606742
  C        24.5664405141        6.4639832279        3.7177481687
  C        23.5764018023        6.7334588873        4.6807942588
  C        22.9273494746        5.6952323395        5.3474331116
  C        25.1781231737        7.5688027947        2.9362203609
  C        25.1350513693        7.5553538943        1.5138274807
  C        24.4244880990        6.5520588681        0.7805917980
  C        38.2996565045       31.9245883835        5.8521312447
  C        37.5657870340       30.8281265141        5.1546528365
  C        36.5921780233       31.1193903190        4.1866157642
  C        35.9737999195       30.0909668006        3.4801703167
  C        36.3134400169       28.7436832759        3.7166172405
  C        37.2554958028       28.4598681174        4.7236559118
  C        37.8771096592       29.4870016537        5.4300174502
  C        35.7168508149       27.6476882286        2.9178328367
  C        35.7407017603       27.6747638433        1.4943556143
  C        36.4411960040       28.6842657101        0.7630488467
  C        25.7479038078        8.6227208369        0.7806622932
  C        25.7854325965        8.6482435975        3.5930230937
  C        38.3305707795       31.9599150287       10.1621354940
  C        37.6155299244       30.8875778801       10.9140970985
  C        36.6881532220       31.1973665079       11.9215112927
  C        36.0798608381       30.1811265511       12.6567275423
  C        36.3818501124       28.8263835456       12.4094860750
  C        37.2902651035       28.5268723734       11.3747713085
  C        37.9011547443       29.5395485815       10.6412584725
  C        35.7675026138       27.7269020958       13.1908570902
  C        35.7661830905       27.7158581041       14.6147067844
  C        36.4534470580       28.7039593642       15.3856321807
  C        46.1353296405       26.6207479992       15.2815287627
  C        46.0874212598       26.5798873106       12.4736406679
  C        22.4575306577        3.2566786295       10.2660546518
  C        23.1428066570        4.3628867660       11.0043896357
  C        24.1397384945        4.0722464852       11.9498370085
  C        24.7650113059        5.0977649769       12.6560235378
  C        24.4146300459        6.4458970648       12.4405838637
  C        23.4358223952        6.7295220123       11.4686223223
  C        22.8064311452        5.7042811917       10.7623761549
  C        25.0562131495        7.5432127891       13.2097432281
  C        25.0722802648        7.5415936414       14.6332644526
  C        24.3924110135        6.5466076881       15.4039846613
  C        26.6184015903       17.8573769792        5.7517429143
  C        25.3151490509       17.9251590953        5.0315500332
  C        25.0796361798       18.8979957778        4.0475564684
  C        23.8609516485       18.9339091254        3.3732961767
  C        22.8461150158       17.9964844938        3.6552773380
  C        23.0799381914       17.0473285915        4.6685526892
  C        24.2969451338       17.0092487884        5.3446527005
  C        21.5729496162       17.9832487515        2.8942153651
  C        21.5724549741       17.9497398792        1.4719234021
  C        22.7763009854       17.8086135123        0.7118142320
  C        34.3729099787       17.2089303583        5.9049972795
  C        35.6572129625       17.1154971340        5.1586890072
  C        35.8400237028       16.1595029186        4.1451636363
  C        37.0294393924       16.1199944270        3.4202356697
  C        38.0731359235       17.0320551378        3.6830290875
  C        37.8910420781       17.9633962115        4.7256288805
  C        36.7021171152       18.0100566296        5.4479096212
  C        39.3334602617       17.0303983931        2.9026021284
  C        39.3374511178       17.0438295024        1.4781198796
  C        38.1366536263       17.1705665454        0.7126675094
  C        20.3251416449       17.9684779689        0.7650210580
  C        20.3486053758       17.9886482231        3.5777756986
  C        34.4433838546       17.2331455538       10.1925660900
  C        35.7461871224       17.1285303051       10.9064808811
  C        35.9505317179       16.1438428723       11.8857888300
  C        37.1404311693       16.1071876548       12.6077923632
  C        38.1574803473       17.0545755308       12.3746547533
  C        37.9600918096       18.0108208583       11.3598062212
  C        36.7696475471       18.0524368998       10.6396883529
  C        39.4026223384       17.0664735201       13.1750694644
  C        39.3729019404       17.0633013651       14.5980480258
  C        38.1531479714       17.1773298506       15.3351731502
  C        35.1329224633       26.6328080060       15.3123913270
  C        35.1811042634       26.6571789593       12.5016635741
  C        26.5597727356       17.8329322975       10.3357590719
  C        25.2474206749       17.8861515930       11.0353215022
  C        24.9939992793       18.8820129694       11.9910262820
  C        23.7750719877       18.9117452817       12.6612432083
  C        22.7823996335       17.9456180021       12.4011316702
  C        23.0308764837       16.9760603090       11.4125909533
  C        24.2498058948       16.9437089544       10.7395457113
  C        21.5199740788       17.9281340293       13.1736956370
  C        21.5450290435       17.9204424809       14.5950347351
  C        22.7627653287       17.7952822743       15.3357680191
  C        14.0447303763       17.8301769310       10.2876642736
  C        15.3481436509       17.8913365954       11.0127025672
  C        15.6022123482       18.9010930118       11.9538500078
  C        16.8101560690       18.9275602908       12.6475995323
  C        17.7968584081       17.9469657217       12.4216002901
  C        17.5474479469       16.9608956256       11.4485797726
  C        16.3390150293       16.9301613839       10.7560230678
  C        19.0649743748       17.9358678586       13.1905793921
  C        19.0639152418       17.9398932707       14.6129638169
  C        17.8572025460       17.8462809427       15.3751251186
  C        46.8018695840       17.2181785056       10.1618923405
  C        45.5127391687       17.1502713821       10.9119904323
  C        45.3160512491       16.1714406242       11.8994036056
  C        44.1357546339       16.1406319694       12.6381921297
  C        43.1169536006       17.0880649011       12.4140131378
  C        43.3123488169       18.0481399410       11.4014274063
  C        44.4937646700       18.0831235122       10.6634756905
  C        41.8603583101       17.0814793962       13.2006639157
  C        41.8576964112       17.0645556666       14.6247166925
  C        43.0605160493       17.1598185024       15.3912452251
  C        20.3109087653       17.9525998433       15.3203719710
  C        20.2880650574       17.9149732163       12.5074746355
  C        46.7769296909       17.2269785639        5.8899269722
  C        45.4663857644       17.1055970027        5.1834515381
  C        45.2483418781       16.0992285798        4.2288794625
  C        44.0545074713       16.0534374304        3.5115149639
  C        43.0421038635       17.0097753621        3.7282679767
  C        43.2502739062       17.9845311966        4.7232423958
  C        44.4459802995       18.0371866861        5.4356468436
  C        41.7933020221       17.0169672127        2.9285484522
  C        41.8232211555       17.0300117201        1.5049626573
  C        43.0439615546       17.1411034917        0.7687966184
  C        46.1531793758       26.6372706186        0.7262872748
  C        46.1621640397       26.6561431778        3.5359251153
  C        14.0450837356       17.8347915852        5.7101003504
  C        15.3663069669       17.9187221836        5.0211006697
  C        15.6328552315       18.9411805627        4.0981021466
  C        16.8607152915       18.9897261013        3.4420333123
  C        17.8495237379       18.0149711013        3.6832829309
  C        17.5898718782       17.0214510923        4.6448988760
  C        16.3639667072       16.9724903456        5.3047587655
  C        19.1157738408       17.9989753775        2.9123229819
  C        19.0904890018       17.9716346309        1.4908059942
  C        17.8701685039       17.8607412693        0.7514113345
  C        28.7992574554       14.0809147573       10.4000524966
  C        28.1924211302       12.8998917927       11.0749251115
  C        28.9178968791       12.1575442078       12.0191602839
  C        28.3196181125       11.0836162729       12.6726892178
  C        26.9811753691       10.7273481054       12.4086276125
  C        26.2793371813       11.4465034218       11.4240849529
  C        26.8752424559       12.5207314920       10.7678953364
  C        26.3137794794        9.6540815410       13.1814865633
  C        26.3186234827        9.6874288457       14.6030076155
  C        26.8255492571       10.8065105710       15.3366376785
  C        32.1751659716       21.2444283819       10.1514837333
  C        32.7713383737       22.4090111281       10.8652256975
  C        32.0256278424       23.0812443141       11.8468377422
  C        32.5961119349       24.1201503055       12.5752131832
  C        33.9286929280       24.5162329165       12.3465039601
  C        34.6556665350       23.8633258226       11.3323512766
  C        34.0881050736       22.8189897463       10.6045237134
  C        34.5581041391       25.5869063985       13.1534700490
  C        34.5425956263       25.5528573864       14.5767254150
  C        34.0314886012       24.4354891584       15.3082168038
  C        25.7206135325        8.6117568599       15.3350490940
  C        25.6650986983        8.6021498762       12.5214210581
  C        32.0958352311       21.1436349736        5.8448208163
  C        32.6842998779       22.2997332729        5.1182243630
  C        31.9529153594       22.9853997126        4.1324276851
  C        32.5373908936       24.0227297229        3.4107491202
  C        33.8688406815       24.4177512920        3.6558614243
  C        34.5803786397       23.7517719996        4.6746160190
  C        34.0030956215       22.7050365546        5.3889093371
  C        34.5095853581       25.5068993020        2.8815178303
  C        34.5151114195       25.5134116598        1.4568416367
  C        34.0172661392       24.4171942260        0.6859620707
  C        40.5886910317       17.0240252928        0.7747229824
  C        40.5574076947       17.0348653094        3.5862889344
  C        28.7407889897       14.1692790306        5.7950780296
  C        28.1629554576       13.0141887744        5.0478933641
  C        28.9009887906       12.3336807516        4.0662053425
  C        28.3392034377       11.2521861336        3.3878117710
  C        27.0236024291       10.8213095256        3.6604323255
  C        26.3043463160       11.4933656266        4.6677519990
  C        26.8623480638       12.5729092415        5.3483044254
  C        26.3889316964        9.7112117904        2.9035045752
  C        26.3591878718        9.7157937368        1.4807050391
  C        26.8414254398       10.8220325889        0.7125522457
  C        18.1356375610        3.1808495069       10.3169968120
  C        17.4063757916        4.2781782786       11.0156356402
  C        16.3907961436        3.9998353538       11.9433185091
  C        15.7431005651        5.0397932191       12.6068946692
  C        16.0948142045        6.3835506795       12.3670950570
  C        17.0840198077        6.6530673221       11.4031333731
  C        17.7330780752        5.6157330550       10.7380089475
  C        15.4704561265        7.4912281824       13.1301911619
  C        15.4857012882        7.4905451691       14.5519195483
  C        16.1872534375        6.4969526385       15.3051227607
  C        42.9458693047       31.8594797943       10.0728541941
  C        43.6461672105       30.7718234797       10.8168136822
  C        44.5918438941       31.0930613803       11.8027728996
  C        45.1974606362       30.0874646268       12.5504324313
  C        44.8708293225       28.7344282673       12.3356713397
  C        43.9448482129       28.4201722964       11.3225740570
  C        43.3361093054       29.4253643906       10.5745473514
  C        45.4883490696       27.6551095001       13.1388847940
  C        45.4926518812       27.6808669227       14.5605742399
  C        44.8055966315       28.6889547708       15.3071686001
  C        14.8566034037        8.5629661733       15.2642947667
  C        14.8750954322        8.5629860672       12.4516239642
  C        42.9464409736       31.9617813065        5.8090352898
  C        43.6917245503       30.8856911554        5.0955509379
  C        44.6561771527       31.1915573324        4.1230954581
  C        45.2776423632       30.1719505708        3.4053526317
  C        44.9539945320       28.8216197627        3.6431116273
  C        44.0206602132       28.5240011382        4.6540435417
  C        43.3924572190       29.5407797146        5.3662425779
  C        45.5629517184       27.7241855896        2.8578540564
  C        45.5332386273       27.7174652631        1.4365529709
  C        44.8269199626       28.7076652082        0.6835591194
  C        35.1196866069       26.6121307417        0.7587459111
  C        35.1256024477       26.5599333750        3.5714221885
  C        18.1488543417        3.2467959730        5.7067844993
  C        17.4300420385        4.3436918347        4.9976932586
  C        16.4150849773        4.0523537423        4.0738528389
  C        15.7667253540        5.0828972172        3.3983668068
  C        16.1209566131        6.4282115687        3.6213483790
  C        17.1120141830        6.7116820778        4.5789266942
  C        17.7597306732        5.6828284977        5.2587715319
  C        15.4904788560        7.5238838772        2.8488059897
  C        15.4964874561        7.5073273282        1.4276531834
  C        16.1933772561        6.5057230522        0.6809417836
  H        10.6722701250       12.4660488849        3.9043004916
  H        11.6943727907       10.5511401670        2.6625017702
  H        15.3911218414       11.1679786824        4.7727535262
  H        14.3507298682       13.0708706305        6.0179117934
  H        13.3759967678       11.6309433965        1.2014182439
  H        50.3225203401       22.7487364883        3.9873667058
  H        49.3193672599       24.6231388051        2.6812451483
  H        45.6415477661       24.1607427556        4.8633762153
  H        46.6623885431       22.2897533278        6.1716182270
  H        47.6294541759       23.5758194673        1.2463194214
  H        14.8716406091        8.5879306828        4.6086662584
  H        50.2866986099       22.7026511099       12.0599914784
  H        49.2687126266       24.5754564785       13.3601304251
  H        45.6096837692       24.1083285110       11.1466525307
  H        46.6517627256       22.2530055047        9.8323653423
  H        47.6073535098       23.5516637218       14.7969841046
  H        40.6497229512       17.0752142366       11.4291472896
  H        48.6867957756       14.0952137176        7.7998584783
  H        10.6813978754       12.4668638193       12.0936045439
  H        11.6896465312       10.5249689616       13.2973319542
  H        15.3932222318       11.1584256075       11.2050421439
  H        14.3646369227       13.0867892210        9.9896786743
  H        13.3758156656       11.6220127843       14.7532190742
  H        47.9298762088       14.2189193413        9.7106079306
  H        47.7799870749       14.3745026309        6.4948789433
  H        49.0821879897       18.5519195352       10.8668082027
  H        10.4155115138       14.1345153360        7.9985683133
  H        24.5424052160        3.0419227130        3.9648403653
  H        25.7096955300        4.8988735912        2.7676386523
  H        23.2900927206        7.7659664789        4.8703800567
  H        22.1414286006        5.8993531588        6.0707258785
  H        23.8735554165        5.7954304208        1.3315265770
  H        36.3445382243       32.1596825785        3.9886542341
  H        35.2201000036       30.3227177199        2.7307941733
  H        37.5276115823       27.4240522352        4.9159390184
  H        38.6302280268       29.2733281854        6.1847841363
  H        37.0033776672       29.4330705665        1.3131978529
  H        25.8302676910        8.6378235444        4.6807335565
  H        36.4629177599       32.2418194823       12.1251793534
  H        35.3545661865       30.4303418391       13.4281777172
  H        37.5390662031       27.4864623800       11.1762035150
  H        38.6229732392       29.3097320312        9.8612090081
  H        37.0261940733       29.4671957375       14.8666282498
  H        46.1086856912       26.5871463008       11.3856026203
  H        44.6681051538       35.1160794841        7.8138324138
  H        24.4181316845        3.0332728359       12.1113375339
  H        25.5444051665        4.8626160627       13.3777278849
  H        23.1506157731        7.7648882357       11.2932971579
  H        22.0375896558        5.9232512160       10.0248769931
  H        23.8154373214        5.7869874005       14.8843549248
  H        44.9534392755       34.3902574583        9.6950435767
  H        44.9002986875       34.2064080491        6.4904926977
  H        40.6657909307       33.2091141410       10.8531079469
  H        23.1512181029        1.9579810963        8.0079342895
  H        25.8615068433       19.6195497325        3.8224962691
  H        23.6824638443       19.6951116818        2.6170004297
  H        22.3085063865       16.3140183556        4.8944409054
  H        24.4879271166       16.2625198160        6.1116133648
  H        23.7177560679       17.6777951037        1.2375136935
  H        35.0358722806       15.4590675719        3.9302080230
  H        37.1641267353       15.3697070851        2.6442102607
  H        38.6835146366       18.6778109601        4.9387943639
  H        36.5539341573       18.7466373171        6.2340076962
  H        37.1931749733       17.2983956712        1.2352986800
  H        20.3559325336       18.0346963158        4.6653931011
  H        35.1582330999       15.4254696422       12.0827711605
  H        37.2934866503       15.3409956485       13.3646064010
  H        38.7364831786       18.7496737929       11.1723102235
  H        36.5997298179       18.8120009732        9.8804808647
  H        37.2226392314       17.3082639728       14.7903133358
  H        35.1612638746       26.6861749286       11.4138388610
  H        28.5123077973       21.0820185701        8.0095262855
  H        25.7645361463       19.6224152467       12.1935403523
  H        23.5778410480       19.6866809305       13.3986962823
  H        22.2723994677       16.2236167370       11.2066557295
  H        24.4580497184       16.1819719642        9.9921764557
  H        23.6934807345       17.6554708198       14.7940924598
  H        29.0031899353       21.7198072846        9.7627993519
  H        29.1180142386       21.7649866859        6.6167082503
  H        32.0524835123       18.5550599155       11.0259394111
  H        27.3420708351       19.0802049603        8.0994819124
  H        14.8424567508       19.6601918738       12.1258612984
  H        17.0048150917       19.7165716050       13.3708399382
  H        18.2997051104       16.1960845680       11.2666473566
  H        16.1336685334       16.1563642522       10.0201227649
  H        16.9141834575       17.7301644533       14.8488870928
  H        46.1056227493       15.4459557304       12.0807214072
  H        43.9876540188       15.3711132734       13.3926755726
  H        42.5371775068       18.7903259156       11.2219942550
  H        44.6558344862       18.8395285704        9.8989361993
  H        44.0049789598       17.2822866150       14.8687580299
  H        20.2807184932       17.9424170070       11.4193010717
  H        46.0312644501       15.3659757057        4.0487542976
  H        43.8947212538       15.2717032574        2.7719931376
  H        42.4777879584       18.7298598972        4.9013164557
  H        44.6220582158       18.8112572850        6.1788091095
  H        43.9759963359       17.2477364846        1.3161023070
  H        46.1989607562       26.6826631933        4.6233712207
  H        52.7409126456       21.0626274476        8.1945710195
  H        14.8674490298       19.6912083455        3.9114963467
  H        17.0663124637       19.7853175423        2.7290718863
  H        18.3451115406       16.2624307762        4.8383183189
  H        16.1481202381       16.1925456694        6.0309844474
  H        16.9368917723       17.7556037272        1.2964107468
  H        52.3219307630       21.6733024730        6.2946854038
  H        52.0130398749       21.7020739557        9.4955514328
  H        49.0650814594       18.6063706585        5.2045889405
  H        13.2469558824       19.0171451359        7.9774179816
  H        29.9470109289       12.4393478146       12.2301489749
  H        28.8833081460       10.5097127913       13.4050010302
  H        25.2457257844       11.1816706992       11.2109091165
  H        26.3276024118       13.0988416209       10.0276768856
  H        27.1740520507       11.6765733241       14.7883302611
  H        31.0041390923       22.7612591506       12.0375700406
  H        32.0121009230       24.6380095099       13.3328116939
  H        35.6869522809       24.1578458393       11.1489597251
  H        34.6587245757       22.2904418541        9.8444300761
  H        33.6756785713       23.5686484363       14.7587321109
  H        25.6803429567        8.5779270788       11.4331958863
  H        30.9224083993       22.6971827424        3.9384541731
  H        31.9602374845       24.5483526421        2.6531807027
  H        35.6096545167       24.0424235611        4.8747838691
  H        34.5643597211       22.1723500903        6.1531502976
  H        33.6508176713       23.5352405854        1.2036127632
  H        40.5469424725       16.9997295051        4.6741849648
  H        32.5136619479       14.1244455275        8.3727322379
  H        29.9149965501       12.6626013601        3.8490560355
  H        28.9234654918       10.7239072017        2.6374563601
  H        25.2858840691       11.1802828475        4.8882242298
  H        26.2977832617       13.1008972149        6.1127474739
  H        27.1997744865       11.7053714692        1.2331076649
  H        33.2854061792       14.1709089991        6.4331300141
  H        33.4024517189       14.4537308352        9.6711020506
  H        32.1258831900       18.4720652155        5.1681430959
  H        30.1953392081       14.1404403835        8.1336469683
  H        16.1188398782        2.9633214634       12.1298202784
  H        14.9537501636        4.8203441364       13.3226428321
  H        17.3662497601        7.6859653456       11.2098483723
  H        18.5149001771        5.8184191667       10.0099373016
  H        16.7538823019        5.7396492358       14.7716478626
  H        44.8282763276       32.1401136540       11.9769044428
  H        45.9374121613       30.3411344639       13.3063172597
  H        43.6819584663       27.3781375281       11.1525667705
  H        42.5993364640       29.1900898751        9.8100186016
  H        44.2301708778       29.4366593790       14.7688577679
  H        14.8512831771        8.5462003853       11.3634021819
  H        44.8996342298       32.2342293079        3.9315130747
  H        46.0244038217       30.4131607799        2.6519729685
  H        43.7637782588       27.4842776392        4.8457225098
  H        42.6460802726       29.3179778487        6.1248012939
  H        44.2683579176       29.4705347593        1.2181059766
  H        35.0921204765       26.5615601877        4.6594170166
  H        36.6052660050       35.1337227069        8.1810942915
  H        16.1443038089        3.0127372775        3.9038934276
  H        14.9746113019        4.8559224315        2.6880873216
  H        17.3951654945        7.7472002252        4.7560940682
  H        18.5423467095        5.8933907122        5.9837866463
  H        16.7647955789        5.7554665409        1.2193715758
  H        36.2794343040       34.4814707765        6.2731420111
  H        36.3824044717       34.2084532353        9.4998952645
  H        40.5788888595       33.2020234213        5.1539802247
  H        17.4721619393        1.9470679824        7.9740003926
  H        29.0377473700       19.3154441275       12.5634244148
  H        28.9488872654       19.1420339354        3.3055954640
  H        31.4718374356       15.7493379221       12.6947284602
  H        27.9476288053       17.6748681177       14.3061350941
  H        29.8733958634       15.5062037963       14.7789038652
  H        32.5444508835       17.3689499770        1.8803958933
  H        18.8534717598        0.8688333208       12.3353764667
  H        40.5275811525       35.2291089041        3.9519699241
  H        42.3246918620       34.4192548950        3.5908299646
  H        22.0879186889        0.6920624865       12.3509139599
  H        11.5969283229       18.7126691196       12.3818781117
  H        52.2648924013       18.4306566956        3.6779793468
  H        49.2549094931       16.4769774118        3.5844513331
  H        10.1504194209       15.7983362692       12.2925747558
  H        50.8497188147       17.6926999941        3.9541613098
  H        10.0459315671       17.3947553199       12.0519410962
  H        20.2149274666        0.0022167939       12.0420242941
  H        39.1833585840       36.1244228636        3.6866920888
 Ni        30.2285609476       18.0323623343        2.1674931606
 Ni        30.7789474368       16.9291012375        0.3326964162
 Ni        29.0361880964       18.3861211905        0.2422264243
 Ni        30.1016943149       17.4735427845       13.4032857462
  O        10.6497721115       14.3651853700        5.4858023851
  O        12.6131167209       14.6575370201        6.5838489069
  O        49.1472530248       16.8460012910        7.9895263511
  O        50.3500345979       20.9362927968        5.6482677097
  O        48.3483732448       20.5931672538        6.6659687808
  O        11.0509797346       17.0540359510        6.5006465737
  O        50.3206589539       20.8816644660       10.4068038599
  O        48.3465558129       20.5865724079        9.3269078204
  O        49.5432339152       18.2483896015       10.0680992502
  O        12.3588745606       18.6245709273        7.9996011804
  O        48.6930669108       14.1487999581        6.7511657492
  O         8.2097462568       14.2104742170        9.3225677489