     573
 i =      210, E =     -4762.8049714508
  C        11.8590172925       14.0535575476        5.7415585053
  C        12.4565748644       12.8906533613        5.0233528065
  C        11.7047572760       12.1714675667        4.0819688745
  C        12.2811544993       11.1092869676        3.3896188463
  C        13.6218742286       10.7398196556        3.6170601386
  C        14.3551856411       11.4436655776        4.5902154083
  C        13.7822913078       12.5086533736        5.2817194066
  C        14.2613800210        9.6491491360        2.8436368695
  C        14.2565940689        9.6570294521        1.4219366658
  C        13.7433311202       10.7591305526        0.6680677493
  C        49.1270992878       21.2329917538        5.8796300110
  C        48.5503900401       22.4010677163        5.1525266301
  C        49.3003426239       23.0682883504        4.1714280252
  C        48.7334150285       24.1074806233        3.4382645042
  C        47.4029746888       24.5093091541        3.6670822587
  C        46.6721301037       23.8605621233        4.6807482549
  C        47.2345763602       22.8156219474        5.4100574939
  C        46.7726240622       25.5869979468        2.8698636192
  C        46.7613685867       25.5573136913        1.4481010472
  C        47.2611990650       24.4421955164        0.7045739021
  C        14.8605615629        8.5707284717        0.7086442592
  C        14.8923258849        8.5972930055        3.5202674825
  C        49.1133260751       21.2034479207       10.1453671066
  C        48.5279526569       22.3648965435       10.8725653401
  C        49.2671141620       23.0255164324       11.8655720689
  C        48.6907760748       24.0600821693       12.5970423371
  C        47.3604085741       24.4569315425       12.3587185825
  C        46.6400677892       23.8121139848       11.3350906244
  C        47.2136297687       22.7761978152       10.6033172733
  C        46.7218984190       25.5318871707       13.1497457854
  C        46.7334667009       25.5281516462       14.5714568512
  C        47.2488558992       24.4288966358       15.3278128600
  C        40.6348607460       17.1215529236       15.3234336577
  C        40.6526064369       17.1554526856       12.5146614831
  C        11.8831962466       14.0866913024       10.2854321479
  C        12.4726753287       12.9110341598       10.9897569125
  C        11.7151607183       12.1776816257       11.9157506002
  C        12.2818283226       11.0952754511       12.5841685539
  C        13.6207344376       10.7217668834       12.3524793899
  C        14.3587472127       11.4375122522       11.3918409792
  C        13.7932180275       12.5186168650       10.7191201625
  C        14.2542974507        9.6249617199       13.1228572314
  C        14.2528668148        9.6448112659       14.5447003085
  C        13.7428636608       10.7536721548       15.2918138934
  C        22.5103537400        3.2459434977        5.7519072326
  C        23.2184021551        4.3547284695        5.0510692429
  C        24.2171528539        4.0826581297        4.1043657316
  C        24.8365015902        5.1273544677        3.4227810816
  C        24.4724790119        6.4668794972        3.6664774211
  C        23.5018054323        6.7304160882        4.6501588638
  C        22.8784196961        5.6878061532        5.3305897725
  C        25.0707908345        7.5783490432        2.8917245559
  C        25.0528033639        7.5675467952        1.4698810196
  C        24.3607895160        6.5624959837        0.7220119691
  C        38.2970548607       31.9277443165        5.8524625132
  C        37.5525203305       30.8383137736        5.1529712064
  C        36.5843342267       31.1449290018        4.1841250826
  C        35.9517207423       30.1270938295        3.4748171810
  C        36.2713076987       28.7753283661        3.7103971338
  C        37.2083484567       28.4760250741        4.7175896596
  C        37.8448779374       29.4929680898        5.4263871873
  C        35.6618655031       27.6872908190        2.9088981963
  C        35.7077152272       27.7031097686        1.4869198557
  C        36.4215789324       28.7054388979        0.7567908430
  C        25.6747629154        8.6388487714        0.7508254493
  C        25.6537082279        8.6608595312        3.5634445814
  C        38.3318255780       31.9620696970       10.1605466166
  C        37.6167784371       30.8898412983       10.9123247856
  C        36.6841249224       31.2011817693       11.9136501548
  C        36.0748054971       30.1853350545       12.6481413534
  C        36.3836024449       28.8319976370       12.4049731438
  C        37.2981579273       28.5304464968       11.3771461663
  C        37.9091763318       29.5428487416       10.6438247733
  C        35.7675307904       27.7338446241       13.1855664687
  C        35.7615535345       27.7272603289       14.6080984742
  C        36.4459746843       28.7179105196       15.3801191493
  C        46.1354487767       26.6207718664       15.2816222142
  C        46.0880289846       26.5803194439       12.4737198178
  C        22.4628181621        3.2571962774       10.2583203864
  C        23.1595035800        4.3660486875       10.9796051542
  C        24.1614705101        4.0805359636       11.9210610241
  C        24.7913075241        5.1108407583       12.6157115720
  C        24.4401367968        6.4574479110       12.3922796426
  C        23.4617434606        6.7360594698       11.4188754238
  C        22.8272101842        5.7061318002       10.7247170357
  C        25.0695279438        7.5569912725       13.1672983065
  C        25.0530593820        7.5556066146       14.5902384958
  C        24.3580414229        6.5586067128       15.3451048352
  C        26.6819820870       17.8776423091        5.7292076562
  C        25.3824148128       17.9611705969        4.9953903697
  C        25.1397144788       18.9418591607        4.0208498708
  C        23.9121316180       18.9884832337        3.3587695014
  C        22.8916959397       18.0569601160        3.6449063360
  C        23.1344243760       17.0996412622        4.6481859118
  C        24.3591181646       17.0496215057        5.3093311908
  C        21.6077478179       18.0460889308        2.8963663337
  C        21.5967686833       17.9939039785        1.4744590210
  C        22.7960191884       17.8430262861        0.7087245339
  C        34.4710399732       17.2527117857        5.9566713612
  C        35.7588708769       17.1899399799        5.2080070718
  C        35.9490056382       16.2102088398        4.2210802035
  C        37.1215858257       16.1864356034        3.4713977163
  C        38.1346609481       17.1396674335        3.6911022019
  C        37.9469808557       18.0996948913        4.7036874735
  C        36.7711599094       18.1304073188        5.4492494522
  C        39.3846055633       17.1360553300        2.8986320453
  C        39.3783200351       17.1425332293        1.4771723996
  C        38.1704050819       17.2601780130        0.7203001927
  C        20.3450287500       18.0001620140        0.7746790209
  C        20.3858084318       18.0544639667        3.5873555865
  C        34.4791728624       17.2432245474       10.1830682513
  C        35.7791856888       17.1712805939       10.9072208528
  C        35.9858179879       16.1904996351       11.8889580719
  C        37.1710690450       16.1686560648       12.6177066874
  C        38.1761891229       17.1270377051       12.3841574281
  C        37.9749082474       18.0832129709       11.3713671716
  C        36.7878162130       18.1102819530       10.6448721100
  C        39.4220758902       17.1418286718       13.1799055765
  C        39.3976388137       17.1474765564       14.6009016311
  C        38.1798359768       17.2612655154       15.3433643575
  C        35.1230653995       26.6481651446       15.3052195290
  C        35.1822028080       26.6644256752       12.4954870283
  C        26.5659243726       17.8296085908       10.3249077691
  C        25.2498598086       17.8803783093       11.0262052881
  C        24.9895087879       18.8829607851       11.9728184692
  C        23.7710812741       18.9113922660       12.6451281382
  C        22.7837995975       17.9362632582       12.3976415466
  C        23.0387052440       16.9589994812       11.4181569785
  C        24.2573042057       16.9290903387       10.7424437444
  C        21.5227718184       17.9200368908       13.1756584904
  C        21.5536222602       17.9265617450       14.5973137581
  C        22.7753330110       17.8108197055       15.3331592243
  C        14.0454573984       17.8270875550       10.2921948811
  C        15.3457785856       17.8817462919       11.0251010491
  C        15.6014458368       18.8909516386       11.9668145690
  C        16.8082777991       18.9149477239       12.6633080002
  C        17.7941834496       17.9322063096       12.4412255848
  C        17.5414959325       16.9441745032       11.4705953265
  C        16.3344105314       16.9161841371       10.7748119837
  C        19.0661485893       17.9254176378       13.2061035954
  C        19.0726539077       17.9438563398       14.6287480824
  C        17.8705683766       17.8566879235       15.3990220345
  C        46.8063071747       17.2189053779       10.1590314582
  C        45.5176987627       17.1580849127       10.9062825862
  C        45.3126928363       16.1799475657       11.8914970159
  C        44.1323685696       16.1629553801       12.6295315043
  C        43.1282760712       17.1245669508       12.4040736168
  C        43.3306593159       18.0825608686       11.3924066343
  C        44.5115138397       18.1032414732       10.6551451730
  C        41.8762164897       17.1365626613       13.1933236293
  C        41.8818099099       17.1334347581       14.6149665244
  C        43.0912113642       17.2252258800       15.3730582218
  C        20.3233672274       17.9660691637       15.3295906568
  C        20.2865745207       17.8993266272       12.5168160691
  C        46.7873418943       17.2308577510        5.8906215345
  C        45.4845141609       17.1256198425        5.1766140400
  C        45.2649216871       16.1256102972        4.2175420299
  C        44.0775391649       16.1008797249        3.4908086074
  C        43.0822541910       17.0731893078        3.7073433113
  C        43.2917654814       18.0425319522        4.7056208355
  C        44.4801801696       18.0736461590        5.4273420652
  C        41.8374162250       17.0982799557        2.9104872460
  C        41.8621835156       17.1120742726        1.4900989702
  C        43.0819620884       17.2124186916        0.7496238137
  C        46.1532948689       26.6371916183        0.7263901960
  C        46.1628297053       26.6561890477        3.5360249218
  C        14.0532465876       17.8402971980        5.7122966458
  C        15.3820368662       17.9377307097        5.0330133749
  C        15.6487464644       18.9642708299        4.1136144531
  C        16.8808194661       19.0249923062        3.4644568508
  C        17.8789973889       18.0589527236        3.7059491313
  C        17.6197007765       17.0627444059        4.6657292340
  C        16.3893793672       17.0016610149        5.3192380152
  C        19.1466759660       18.0497446184        2.9303837921
  C        19.1142546372       18.0075690100        1.5081302293
  C        17.8907523339       17.8853514763        0.7751601481
  C        28.8093012505       14.0848204053       10.3595651079
  C        28.2012091592       12.9154072430       11.0572823078
  C        28.9186375544       12.1958026534       12.0244778950
  C        28.3196214524       11.1258510401       12.6855457875
  C        26.9900769770       10.7507714620       12.4033434125
  C        26.2952035377       11.4523672131       11.4015857403
  C        26.8906764939       12.5231228200       10.7400904648
  C        26.3192906366        9.6727365461       13.1665908571
  C        26.2941201509        9.7052518916       14.5877558609
  C        26.7862920140       10.8232209486       15.3335407786
  C        32.1782473834       21.2466544151       10.1473620806
  C        32.7746240463       22.4137865091       10.8636076856
  C        32.0256275129       23.0929367445       11.8371768740
  C        32.5962395287       24.1324358088       12.5655733991
  C        33.9318381209       24.5210633847       12.3429294847
  C        34.6630171190       23.8605772650       11.3375038340
  C        34.0947443956       22.8157848728       10.6103746666
  C        34.5595238910       25.5945731839       13.1478633355
  C        34.5400165774       25.5648041976       14.5695395864
  C        34.0288910446       24.4471139884       15.3015886366
  C        25.6815185581        8.6280494672       15.3056764115
  C        25.6891731003        8.6177507030       12.4925699533
  C        32.0849468849       21.1610092046        5.8294584834
  C        32.6437317473       22.3296391359        5.0913205094
  C        31.9175890021       22.9688396789        4.0742249023
  C        32.4861966347       24.0231469596        3.3611450864
  C        33.7953425293       24.4656419891        3.6408057329
  C        34.5004964660       23.8390336862        4.6867665291
  C        33.9369704976       22.7845056010        5.3983957650
  C        34.4379374427       25.5557185686        2.8692533106
  C        34.4767682425       25.5452613496        1.4471613075
  C        33.9984701034       24.4379927813        0.6778546945
  C        40.6245135927       17.1146616165        0.7676822323
  C        40.6081814128       17.1297355890        3.5768518059
  C        28.7083659289       14.0946169360        5.8185861208
  C        28.0866344981       12.9565013051        5.0810959212
  C        28.8209181237       12.2494856885        4.1159725978
  C        28.2363668382       11.1964887428        3.4179339499
  C        26.9003241323       10.8195142620        3.6602764320
  C        26.1816051033       11.5131878868        4.6522477503
  C        26.7643163876       12.5697162582        5.3507341409
  C        26.2630994264        9.7257506112        2.8871331926
  C        26.2664265590        9.7326889793        1.4647006974
  C        26.7704931940       10.8381788950        0.7096593687
  C        18.1354895067        3.1811620076       10.3172691054
  C        17.4063499228        4.2783733830       11.0158641356
  C        16.3903769500        4.0001559641       11.9431707116
  C        15.7427626330        5.0402272606       12.6066014706
  C        16.0950063870        6.3839067820       12.3670810561
  C        17.0846697879        6.6532928253       11.4035664519
  C        17.7336740288        5.6158635150       10.7385700967
  C        15.4707081570        7.4916226502       13.1301250826
  C        15.4858685207        7.4908253523       14.5518368463
  C        16.1874358966        6.4971920385       15.3049729447
  C        42.9458594901       31.8596464993       10.0728522598
  C        43.6462420011       30.7719458425       10.8168181419
  C        44.5913133960       31.0933314699       11.8033119420
  C        45.1970441457       30.0878134424       12.5510094832
  C        44.8711189016       28.7346795789       12.3358066911
  C        43.9458371973       28.4202972737       11.3220890935
  C        43.3370121802       29.4253976256       10.5739983313
  C        45.4886739423       27.6553689787       13.1390092743
  C        45.4927559900       27.6809234785       14.5607136887
  C        44.8056927946       28.6889446043       15.3073972744
  C        14.8568227824        8.5632565639       15.2642179111
  C        14.8756034027        8.5634973461       12.4515430884
  C        42.9465074311       31.9617104513        5.8090101151
  C        43.6919023150       30.8855461862        5.0957102211
  C        44.6561931901       31.1914733979        4.1231081705
  C        45.2777901332       30.1719004791        3.4054178535
  C        44.9544107642       28.8215368906        3.6433577648
  C        44.0213793828       28.5238613045        4.6545645807
  C        43.3930458071       29.5406097970        5.3667138255
  C        45.5633638825       27.7241418223        2.8580318254
  C        45.5334184833       27.7173750084        1.4367302211
  C        44.8270322104       28.7075745299        0.6837931990
  C        35.0930705948       26.6373949871        0.7505843656
  C        35.0428243060       26.6141482790        3.5608168679
  C        18.1487220581        3.2471657325        5.7065874049
  C        17.4303450086        4.3439537824        4.9972026053
  C        16.4149449603        4.0527720709        4.0737978591
  C        15.7667273639        5.0834703448        3.3984509538
  C        16.1216655668        6.4286718932        3.6210055155
  C        17.1133264196        6.7119539250        4.5780035062
  C        17.7609149489        5.6829868211        5.2577602502
  C        15.4910812610        7.5243582687        2.8486225486
  C        15.4968644620        7.5076594954        1.4274955911
  C        16.1936702480        6.5059968434        0.6807865138
  H        10.6725251683       12.4653628570        3.9051783717
  H        11.6948095179       10.5506074975        2.6632783789
  H        15.3923851746       11.1694562296        4.7715854524
  H        14.3519620242       13.0722318299        6.0167259833
  H        13.3763016797       11.6312320174        1.2014046746
  H        50.3229838543       22.7481084538        3.9865395161
  H        49.3198761538       24.6226708508        2.6806156856
  H        45.6427326391       24.1615267789        4.8641291424
  H        46.6636903960       22.2904778072        6.1723127172
  H        47.6297858715       23.5758319318        1.2462481071
  H        14.8728808484        8.5886437423        4.6085790033
  H        50.2871396727       22.7026087673       12.0605156492
  H        49.2691743140       24.5754892948       13.3605757804
  H        45.6107204261       24.1094755752       11.1459141348
  H        46.6529001100       22.2540903566        9.8316485852
  H        47.6076557478       23.5518036736       14.7968839375
  H        40.6581623806       17.1253529524       11.4267974224
  H        48.6872875081       14.0948275828        7.8001457686
  H        10.6816169407       12.4665671424       12.0930144125
  H        11.6900205486       10.5247286304       13.2967277511
  H        15.3942821825       11.1598847838       11.2060906208
  H        14.3656094776       13.0880899997        9.9907060240
  H        13.3760933186       11.6223217341       14.7531983496
  H        47.9302832580       14.2186273945        9.7107880137
  H        47.7801660980       14.3737334471        6.4954967181
  H        49.0846188177       18.5524016128       10.8676223040
  H        10.4165562817       14.1342830049        7.9986459132
  H        24.4864338734        3.0462625782        3.9130066051
  H        25.6116565323        4.9156754834        2.6894716472
  H        23.2127639665        7.7610389605        4.8453423585
  H        22.1070953196        5.8826029326        6.0716462615
  H        23.7995108510        5.8046816408        1.2607836115
  H        36.3524630518       32.1890891226        3.9877181837
  H        35.2027056555       30.3712338174        2.7246173396
  H        37.4642804059       27.4358854870        4.9088137851
  H        38.5939301447       29.2671364633        6.1818004019
  H        36.9804419160       29.4554456352        1.3088343355
  H        25.6816006391        8.6471889846        4.6515325257
  H        36.4558746785       32.2458352208       12.1127567357
  H        35.3443792605       30.4333512303       13.4151121748
  H        37.5505451191       27.4899586260       11.1836362873
  H        38.6357735847       29.3143555461        9.8678784798
  H        37.0245660651       29.4771238637       14.8615645042
  H        46.1096685943       26.5878251330       11.3856878742
  H        44.6684652180       35.1163429361        7.8139305892
  H        24.4376778154        3.0422507022       12.0905183425
  H        25.5712290450        4.8810676210       13.3385859274
  H        23.1784347064        7.7706683916       11.2362691763
  H        22.0561787746        5.9201029310        9.9881255288
  H        23.7939489089        5.7984664482       14.8124878331
  H        44.9544205995       34.3909300797        9.6955246862
  H        44.9022267641       34.2071246203        6.4904819125
  H        40.6671658628       33.2098572069       10.8534638045
  H        23.1502484374        1.9586300790        8.0050569510
  H        25.9203726093       19.6659570955        3.7974994566
  H        23.7306212464       19.7569552807        2.6103551963
  H        22.3623602389       16.3685701810        4.8792537318
  H        24.5519545310       16.2967972969        6.0695210175
  H        23.7391901074       17.7192448786        1.2326664281
  H        35.1594910743       15.4813941661        4.0516409847
  H        37.2690602343       15.4205369018        2.7130624525
  H        38.7226845574       18.8428915014        4.8762093659
  H        36.6084974433       18.8866347851        6.2136878090
  H        37.2305997501       17.3805689218        1.2516566044
  H        20.4001269038       18.1098126897        4.6745857002
  H        35.1984870368       15.4641320585       12.0768240362
  H        37.3320384379       15.4051538689       13.3756141095
  H        38.7459247970       18.8286542040       11.1878971964
  H        36.6102756342       18.8649461881        9.8823289543
  H        37.2469090609       17.3817133984       14.8003633711
  H        35.1647453135       26.6923378010       11.4076326527
  H        28.5154296600       21.0917229115        8.0016102419
  H        25.7556476629       19.6300124837       12.1671032168
  H        23.5702163300       19.6928526096       13.3747101191
  H        22.2860548927       16.1984524181       11.2205478399
  H        24.4694707158       16.1613621178       10.0021609499
  H        23.7024556139       17.6642065953       14.7870668745
  H        28.9967336298       21.7203734929        9.7700556606
  H        29.0922118007       21.7790191198        6.6009814495
  H        32.0818523845       18.5513465504       10.9990019401
  H        27.4030709429       19.0830110190        8.0738086793
  H        14.8445387764       19.6535442575       12.1360863834
  H        17.0032766872       19.7056880768       13.3845838797
  H        18.2914000412       16.1765009659       11.2908871978
  H        16.1294740310       16.1414445785       10.0397334258
  H        16.9247135161       17.7336260839       14.8793656688
  H        46.0952813733       15.4467067243       12.0716705935
  H        43.9730533769       15.3967015254       13.3850020861
  H        42.5630120378       18.8328761315       11.2148243147
  H        44.6849808644       18.8568392442        9.8905596041
  H        44.0328113462       17.3383203716       14.8433979976
  H        20.2734702835       17.9169571381       11.4284698695
  H        46.0405240947       15.3834452507        4.0429435494
  H        43.9083346396       15.3258383200        2.7464726906
  H        42.5269147331       18.7968360246        4.8780090042
  H        44.6654771371       18.8406451262        6.1752297114
  H        44.0165083902       17.3144320284        1.2936005096
  H        46.1999925734       26.6828159296        4.6234577925
  H        52.7411411775       21.0626676024        8.1947002324
  H        14.8791641555       19.7088760971        3.9221076939
  H        17.0808177284       19.8239299720        2.7535309881
  H        18.3790094927       16.3088522337        4.8635605829
  H        16.1788482372       16.2174473725        6.0426036830
  H        16.9602303274       17.7841811586        1.3255791965
  H        52.3220987371       21.6730825438        6.2943595975
  H        52.0130640479       21.7017757769        9.4957066617
  H        49.0686151447       18.6075463512        5.2039838735
  H        13.2480239786       19.0165650870        7.9787763526
  H        29.9420356302       12.4906836532       12.2465420020
  H        28.8780921988       10.5676459596       13.4338532925
  H        25.2677327271       11.1741575559       11.1762263484
  H        26.3500771298       13.0860295198        9.9831847238
  H        27.1504867036       11.6919595564       14.7934247993
  H        31.0005095301       22.7787902718       12.0189560561
  H        32.0098673528       24.6579109976       13.3162172639
  H        35.6966527292       24.1501915195       11.1593191963
  H        34.6663198668       22.2805496399        9.8555625465
  H        33.6843523170       23.5771336681       14.7499768737
  H        25.7268456097        8.5949753026       11.4048519230
  H        30.9128034032       22.6206054268        3.8455460974
  H        31.9140781428       24.5201639336        2.5807525800
  H        35.5135738730       24.1664861960        4.9108897333
  H        34.4899528218       22.2817040518        6.1881115241
  H        33.6318329206       23.5595259089        1.2007845535
  H        40.6022726308       17.0956735818        4.6645870214
  H        32.5206603568       14.1452557420        8.2556878255
  H        29.8537847223       12.5327774207        3.9292979211
  H        28.8151914068       10.6472938403        2.6785934160
  H        25.1475867979       11.2359467745        4.8468991778
  H        26.2043341196       13.1201837043        6.1030887337
  H        27.1211759721       11.7187134747        1.2403460522
  H        33.2998013166       14.2053159929        6.4390521996
  H        33.4111486119       14.3928301799        9.6100602719
  H        32.0994838505       18.5398960795        5.0574787086
  H        30.2364662354       14.1946470175        8.0705736063
  H        16.1180355747        2.9637074786       12.1294374969
  H        14.9531434696        4.8210009451       13.3221188150
  H        17.3674893439        7.6861067683       11.2106837017
  H        18.5159958743        5.8184899046       10.0110217001
  H        16.7541630006        5.7399810328       14.7714703741
  H        44.8272833093       32.1404451300       11.9777617420
  H        45.9366217970       30.3416865608       13.3071970441
  H        43.6837122864       27.3781565635       11.1515347319
  H        42.6009727941       29.1899980061        9.8087977148
  H        44.2304109795       29.4368014109       14.7691434300
  H        14.8520442035        8.5468847634       11.3633162947
  H        44.8994877280       32.2341706789        3.9314130633
  H        46.0244833762       30.4132133080        2.6519943967
  H        43.7649091668       27.4840848837        4.8465282866
  H        42.6469552636       29.3177801248        6.1255494093
  H        44.2686787900       29.4705649368        1.2183890306
  H        34.9879884840       26.6266685720        4.6478131829
  H        36.6054081213       35.1341768791        8.1805677891
  H        16.1436297520        3.0132388766        3.9042126289
  H        14.9742513820        4.8567543637        2.6884941445
  H        17.3971860308        7.7473693043        4.7546450739
  H        18.5440385762        5.8934421970        5.9822551010
  H        16.7652682924        5.7558686093        1.2192066014
  H        36.2791485792       34.4823604232        6.2728909102
  H        36.3812946977       34.2089410664        9.4991887091
  H        40.5798532789       33.2027670898        5.1539314390
  H        17.4712452761        1.9476794789        7.9741335516
  H        29.0361575691       19.2367615260       12.5298628634
  H        31.0148712032       15.0242260370        3.9557269456
  H        31.3246283889       15.5007172702       12.4912951562
  H        28.1108176192       17.6295795072       14.7038514479
  H        29.6616742965       15.0312931134       14.5617118706
  H        32.0561986195       19.9117034901        0.7845804143
  H        31.7708946336       18.5275013279        1.4901547342
  H        28.4570277341       18.0413636874        1.9435336919
  H        32.4218917199       18.2738491198       14.3937579934
  H        18.8540976795        0.8693252474       12.3351928724
  H        40.5281703356       35.2288217632        3.9519227537
  H        42.3253099086       34.4200825774        3.5898742353
  H        22.0878063973        0.6921639451       12.3516484236
  H        11.5969244521       18.7130434293       12.3824038325
  H        52.2650293359       18.4309377395        3.6767889191
  H        49.2553380732       16.4767981943        3.5845617105
  H        10.1499947291       15.7982908408       12.2931977590
  H        50.8501941475       17.6922649611        3.9542836184
  H        10.0461993370       17.3945765304       12.0519985035
  H        20.2155586403        0.0025204765       12.0418625211
  H        39.1839137478       36.1245544037        3.6865598452
 Ni        30.3069375725       16.8307541879        2.8290340655
 Ni        31.2749068535       16.1650589200       -0.0848548935
 Ni        30.0565517756       18.5219853633       -0.1572289887
 Ni        30.2256504863       17.3528037630       13.2395237993
  O        10.6501672802       14.3650636872        5.4859076868
  O        12.6133829794       14.6576870897        6.5839128845
  O        49.1481821449       16.8458271795        7.9897906645
  O        50.3504330338       20.9355712450        5.6479065556
  O        48.3486333277       20.5933355859        6.6658785816
  O        11.0522557933       17.0535260113        6.5008510460
  O        50.3210600973       20.8817109387       10.4068468527
  O        48.3467670988       20.5868087622        9.3271924320
  O        49.5439876980       18.2483801143       10.0681701990