     573
 i =       89, E =     -4762.8008921372
  C        11.8587396864       14.0535362222        5.7415904739
  C        12.4562307135       12.8906654310        5.0232461712
  C        11.7044888648       12.1716474378        4.0816855496
  C        12.2808682666       11.1094521311        3.3893345182
  C        13.6214772300       10.7397248278        3.6169957671
  C        14.3546942071       11.4434068765        4.5903425814
  C        13.7818246550       12.5083952187        5.2818461098
  C        14.2609842537        9.6490394508        2.8436090639
  C        14.2562889405        9.6569561789        1.4219114949
  C        13.7431392494       10.7590894248        0.6680083120
  C        49.1268503198       21.2331284949        5.8796329322
  C        48.5501439540       22.4011342082        5.1526560428
  C        49.3001415033       23.0683277148        4.1715393879
  C        48.7332251348       24.1074820862        3.4383479715
  C        47.4027402157       24.5092719965        3.6670702884
  C        46.6718713026       23.8605730929        4.6807685094
  C        47.2342927235       22.8156610113        5.4101262645
  C        46.7724604094       25.5869308555        2.8697778301
  C        46.7614404694       25.5572984696        1.4480120682
  C        47.2614779178       24.4422646557        0.7044947502
  C        14.8602227413        8.5706085660        0.7086576441
  C        14.8917501172        8.5970946268        3.5202686861
  C        49.1131760957       21.2033858523       10.1453047909
  C        48.5277997664       22.3647640136       10.8724083063
  C        49.2670264173       23.0254316840       11.8653645593
  C        48.6907129771       24.0599957872       12.5968244122
  C        47.3603185084       24.4568378822       12.3585735601
  C        46.6399471620       23.8120221642       11.3349535715
  C        47.2134768728       22.7761139872       10.6031530643
  C        46.7218506134       25.5317676810       13.1496389375
  C        46.7336187555       25.5281138567       14.5713462079
  C        47.2491785473       24.4289595271       15.3277315166
  C        40.6187485440       17.0872311295       15.3107672613
  C        40.6345001603       17.1040221101       12.5008745077
  C        11.8830588679       14.0865660477       10.2854774668
  C        12.4723424474       12.9107904383       10.9897154573
  C        11.7147879893       12.1775356730       11.9157633664
  C        12.2813757534       11.0950902279       12.5841874364
  C        13.6202276471       10.7214095858       12.3524275524
  C        14.3582301653       11.4370249030       11.3916803101
  C        13.7928147464       12.5181961870       10.7189793665
  C        14.2538034092        9.6246389362       13.1228399720
  C        14.2524816513        9.6446083812       14.5446804003
  C        13.7426249043       10.7535686469       15.2917521983
  C        22.5114798449        3.2439918300        5.7524226434
  C        23.2260851037        4.3480609790        5.0509570306
  C        24.2224287162        4.0652540537        4.1049276903
  C        24.8509984902        5.1027983253        3.4214755778
  C        24.4988991986        6.4454348196        3.6637650004
  C        23.5301583128        6.7198145463        4.6463436803
  C        22.8970153433        5.6839790405        5.3283735980
  C        25.1083854489        7.5494563354        2.8876833088
  C        25.0862565384        7.5398889399        1.4660710023
  C        24.3819871828        6.5423837435        0.7195284087
  C        38.3019540138       31.9302806740        5.8494399077
  C        37.5701998932       30.8419290063        5.1406764574
  C        36.6103026103       31.1476802782        4.1638005255
  C        35.9907815738       30.1286637752        3.4458330458
  C        36.3163325433       28.7789742669        3.6834474913
  C        37.2463938355       28.4806715896        4.6969883849
  C        37.8702207851       29.4984355093        5.4136748813
  C        35.7111936002       27.6887031611        2.8864613475
  C        35.7429430552       27.7030351931        1.4652239590
  C        36.4523596894       28.7029311509        0.7280243741
  C        25.7159541973        8.6061756302        0.7463944974
  C        25.7038270342        8.6252125384        3.5584577179
  C        38.3286005867       31.9617374539       10.1565739589
  C        37.6071180426       30.8885958321       10.8990315130
  C        36.6779725299       31.1976235142       11.9042728512
  C        36.0672431692       30.1794847507       12.6338570673
  C        36.3710155432       28.8265258924       12.3819184365
  C        37.2779750755       28.5274651773       11.3467412627
  C        37.8909092376       29.5421482097       10.6184220437
  C        35.7611431111       27.7281809897       13.1661523197
  C        35.7688377251       27.7229424973       14.5882659305
  C        36.4641849208       28.7128436941       15.3513210063
  C        46.1355233070       26.6206921026       15.2815023403
  C        46.0878203186       26.5800988710       12.4736028595
  C        22.4616823184        3.2550985083       10.2566107751
  C        23.1588556595        4.3623947515       10.9779570909
  C        24.1636208194        4.0734451109       11.9149764245
  C        24.7952108508        5.1017220806       12.6100577527
  C        24.4418987824        6.4480966012       12.3904830314
  C        23.4602372799        6.7304234146       11.4218662522
  C        22.8240488743        5.7023170456       10.7271322144
  C        25.0764488818        7.5436491069       13.1645310910
  C        25.0706696377        7.5360813123       14.5870902537
  C        24.3727107920        6.5416773875       15.3427439539
  C        26.6286726864       17.8642235616        5.7815724509
  C        25.3216240669       17.9086503697        5.0550347405
  C        25.0723607561       18.8921209782        4.0849596853
  C        23.8580188669       18.9159785589        3.4011812661
  C        22.8567051741       17.9579303771        3.6619877511
  C        23.1040797854       16.9958358762        4.6597533225
  C        24.3193232206       16.9680247405        5.3429877913
  C        21.5826296078       17.9443451416        2.8983035222
  C        21.5807504620       17.9206010269        1.4753229807
  C        22.7850544120       17.7954620246        0.7129296638
  C        34.4196603121       17.2214180961        5.9111610284
  C        35.7080704157       17.1608668557        5.1572868519
  C        35.9093179218       16.1854689088        4.1676162216
  C        37.0926022381       16.1610889659        3.4328720355
  C        38.1078371694       17.1098636295        3.6686739408
  C        37.9076002761       18.0654433023        4.6826919173
  C        36.7221932169       18.0952785422        5.4141066789
  C        39.3655549004       17.1088778215        2.8859655959
  C        39.3623318207       17.1171826198        1.4642927047
  C        38.1560641381       17.2412923193        0.7054393305
  C        20.3334394368       17.9379396911        0.7676212614
  C        20.3574468760       17.9477909769        3.5809367270
  C        34.4390330806       17.2373810650       10.1892015763
  C        35.7408512976       17.1373826041       10.9120444518
  C        35.9480157316       16.1567157151       11.8934410370
  C        37.1397261844       16.1257601413       12.6140101304
  C        38.1532797668       17.0741905871       12.3731403856
  C        37.9523769337       18.0274809522       11.3573957762
  C        36.7600597209       18.0634527637       10.6403245959
  C        39.4030426019       17.0902924368       13.1660934765
  C        39.3813667168       17.1082285185       14.5872836780
  C        38.1644522947       17.2348036815       15.3289314063
  C        35.1340194159       26.6463246457       15.2926183481
  C        35.1704633848       26.6575124434       12.4834613195
  C        26.5722901307       17.8286266457       10.3255263195
  C        25.2561664602       17.8770593232       11.0294319700
  C        24.9889579593       18.8859278162       11.9671043979
  C        23.7711234624       18.9113371831       12.6410817569
  C        22.7905261036       17.9283790830       12.4000402410
  C        23.0511264771       16.9452739173       11.4283259700
  C        24.2700525085       16.9174078522       10.7533120723
  C        21.5273968152       17.9096405527       13.1742131784
  C        21.5524168417       17.9019608279       14.5957548774
  C        22.7715450565       17.7871015785       15.3364957260
  C        14.0465395154       17.8287741171       10.2891622249
  C        15.3503400838       17.8859071765       11.0150603944
  C        15.6058304366       18.8886351074       11.9635536094
  C        16.8144295505       18.9098696925       12.6569841121
  C        17.8019344294       17.9312647942       12.4241676928
  C        17.5510481832       16.9526576275       11.4437461976
  C        16.3418831818       16.9267547886       10.7518805519
  C        19.0713541457       17.9155806661       13.1925115069
  C        19.0712749764       17.9142994477       14.6150642373
  C        17.8651073331       17.8154924134       15.3776099446
  C        46.8032888449       17.2168441527       10.1577497603
  C        45.5109367198       17.1482215311       10.9007397813
  C        45.3069955640       16.1654025808       11.8818570857
  C        44.1237109384       16.1380716031       12.6154533196
  C        43.1133811968       17.0934390588       12.3904588114
  C        43.3143842822       18.0558013309       11.3823252909
  C        44.4985981965       18.0869866095       10.6495585272
  C        41.8592135107       17.0967522832       13.1791179845
  C        41.8653386441       17.0991993426       14.6015076698
  C        43.0739200611       17.1964212898       15.3607037627
  C        20.3186741110       17.9271102704       15.3223171181
  C        20.2948167118       17.8963783600       12.5089040161
  C        46.7827353437       17.2315363342        5.8871216826
  C        45.4784576197       17.1244733706        5.1698421986
  C        45.2587407524       16.1228280387        4.2117274581
  C        44.0699484273       16.0922555011        3.4858967082
  C        43.0691535626       17.0603437345        3.6997041456
  C        43.2796043486       18.0324875961        4.6957974135
  C        44.4695299216       18.0691985626        5.4169623575
  C        41.8213851218       17.0783870778        2.9020794831
  C        41.8461014622       17.0883594561        1.4803335350
  C        43.0649299829       17.1881959937        0.7377891235
  C        46.1533233641       26.6371257497        0.7262643432
  C        46.1624545822       26.6560290251        3.5359061787
  C        14.0467764078       17.8324776903        5.7087365754
  C        15.3687538389       17.9088584921        5.0194172888
  C        15.6416137905       18.9241747471        4.0903403633
  C        16.8711768796       18.9634317609        3.4363625772
  C        17.8565995322       17.9865999199        3.6849775407
  C        17.5906664239       17.0005792394        4.6526699951
  C        16.3630731410       16.9607559093        5.3102179449
  C        19.1241032220       17.9629427085        2.9152373059
  C        19.0988214385       17.9373578522        1.4935614284
  C        17.8785970030       17.8258907969        0.7538242222
  C        28.8115603418       14.0919930084       10.3893335707
  C        28.2023730295       12.9139018321       11.0736932645
  C        28.9365630723       12.1583214258       11.9996463959
  C        28.3416545874       11.0807973013       12.6512877478
  C        26.9987375706       10.7348623972       12.3997369100
  C        26.2857378377       11.4700425771       11.4359996973
  C        26.8786051708       12.5479437182       10.7831693729
  C        26.3338667374        9.6526521525       13.1616839628
  C        26.3275053390        9.6754155189       14.5826512779
  C        26.8423866536       10.7831284851       15.3282059859
  C        32.1782250511       21.2367677211       10.1488871509
  C        32.7710113377       22.4041096261       10.8671137114
  C        32.0203692795       23.0842680256       11.8383304863
  C        32.5891500032       24.1254655371       12.5654731272
  C        33.9243797552       24.5138285257       12.3427672792
  C        34.6573948366       23.8524694033       11.3393968682
  C        34.0907513029       22.8064051026       10.6135886346
  C        34.5521776690       25.5897370957       13.1432742839
  C        34.5400622461       25.5634582308       14.5650541885
  C        34.0233410808       24.4524341923       15.3042631742
  C        25.7127558669        8.6004791824       15.3016034571
  C        25.6922181207        8.6053609646       12.4882914806
  C        32.1311122217       21.2289914654        5.9159186074
  C        32.7024519109       22.3844059816        5.1607069144
  C        31.9538264513       23.0475039175        4.1764620015
  C        32.5247346025       24.0764414672        3.4296429254
  C        33.8572290125       24.4750864057        3.6523948981
  C        34.5886546497       23.8271413485        4.6660954977
  C        34.0235552296       22.7913240726        5.4045607344
  C        34.4917599914       25.5573979109        2.8642329060
  C        34.5067003792       25.5482807008        1.4424545311
  C        34.0052560696       24.4459707535        0.6811124413
  C        40.6088260610       17.0866665649        0.7558993942
  C        40.5893410057       17.1053276081        3.5662234809
  C        28.7366036690       14.0622681844        5.8193181850
  C        28.1292459332       12.9178760010        5.0780249452
  C        28.8752780508       12.2077913704        4.1247017486
  C        28.2974253148       11.1514172098        3.4247488175
  C        26.9583570369       10.7773147267        3.6545612076
  C        26.2283794009       11.4754754205        4.6348029156
  C        26.8041494436       12.5333458852        5.3358106534
  C        26.3219026348        9.6840743228        2.8811178743
  C        26.3226853763        9.6920194119        1.4593356255
  C        26.8376307049       10.7923433962        0.7042073436
  C        18.1353921535        3.1809733050       10.3171513887
  C        17.4060485473        4.2782294237       11.0157439492
  C        16.3904279373        3.9998511463       11.9433633651
  C        15.7426861765        5.0398254966       12.6068617408
  C        16.0944893528        6.3835612284       12.3670825914
  C        17.0837383478        6.6531030898       11.4031827985
  C        17.7328370978        5.6157619827       10.7381263567
  C        15.4701847607        7.4912677990       13.1301418815
  C        15.4854435205        7.4905908092       14.5518609166
  C        16.1870119231        6.4969909970       15.3050419534
  C        42.9458573084       31.8594910176       10.0728590616
  C        43.6461819050       30.7717980863       10.8168788215
  C        44.5917964840       31.0930959079       11.8028705365
  C        45.1974724447       30.0875303428       12.5505422103
  C        44.8709484507       28.7344857846       12.3357306442
  C        43.9450323872       28.4201731171       11.3225978863
  C        43.3362336542       29.4253322633       10.5745600162
  C        45.4885522776       27.6551726812       13.1388998432
  C        45.4927307094       27.6807781731       14.5605950075
  C        44.8055938455       28.6887870722       15.3072255554
  C        14.8564825470        8.5630911549       15.2642238903
  C        14.8749606173        8.5630728317       12.4515484223
  C        42.9463937062       31.9615384977        5.8089492729
  C        43.6916540701       30.8853765651        5.0954816587
  C        44.6562920062       31.1912700168        4.1232248387
  C        45.2778269908       30.1716759012        3.4055097864
  C        44.9539837449       28.8213701865        3.6431018134
  C        44.0204164847       28.5237104859        4.6537994948
  C        43.3921414758       29.5404887814        5.3659600149
  C        45.5630524158       27.7239677574        2.8578614131
  C        45.5332868481       27.7172410238        1.4365635986
  C        44.8268892462       28.7074250976        0.6836198845
  C        35.1188448095       26.6374042297        0.7376355647
  C        35.1048819078       26.6146324185        3.5472377918
  C        18.1485178260        3.2470256730        5.7066722644
  C        17.4299518633        4.3438804979        4.9973713037
  C        16.4147899217        4.0525928230        4.0737560976
  C        15.7664752743        5.0832161115        3.3983591806
  C        16.1210638865        6.4284595268        3.6211481363
  C        17.1123721283        6.7118595643        4.5784738170
  C        17.7600508832        5.6829536690        5.2582507739
  C        15.4905641256        7.5241465436        2.8486914392
  C        15.4964584490        7.5075210407        1.4275547093
  C        16.1932239310        6.5058207913        0.6808563902
  H        10.6723300713       12.4657069793        3.9047401592
  H        11.6945616590       10.5508849464        2.6628779529
  H        15.3917765846       11.1689313071        4.7719590131
  H        14.3513988701       13.0717619597        6.0170868094
  H        13.3761723885       11.6312335639        1.2013181628
  H        50.3228116782       22.7482117460        3.9867054522
  H        49.3197046063       24.6226634257        2.6807074416
  H        45.6424635077       24.1615334589        4.8641065150
  H        46.6633530369       22.2906003851        6.1723984772
  H        47.6301673983       23.5759373126        1.2461541832
  H        14.8721176489        8.5883681043        4.6085750213
  H        50.2870676113       22.7025694874       12.0602900675
  H        49.2691353535       24.5754388667       13.3603145266
  H        45.6105957684       24.1093911501       11.1457994442
  H        46.6526764085       22.2540684522        9.8314949197
  H        47.6080965301       23.5518945045       14.7968394597
  H        40.6404583711       17.0686173383       11.4131064137
  H        48.6871229299       14.0951548309        7.8000441044
  H        10.6812814648       12.4665289195       12.0930788621
  H        11.6895693223       10.5246216681       13.2968140898
  H        15.3937065917       11.1592375662       11.2058407786
  H        14.3652413289       13.0876456137        9.9905787506
  H        13.3758699437       11.6222111538       14.7531081108
  H        47.9302364962       14.2185897787        9.7108415135
  H        47.7799670327       14.3739749742        6.4953749280
  H        49.0834325792       18.5522601393       10.8671403678
  H        10.4160709086       14.1344059587        7.9986379286
  H        24.4820602440        3.0260183277        3.9159155233
  H        25.6241413029        4.8832190111        2.6883670702
  H        23.2506404843        7.7534218885        4.8395958004
  H        22.1271195687        5.8864291050        6.0689438048
  H        23.8170244858        5.7881878563        1.2595361413
  H        36.3748804525       32.1913542477        3.9693288131
  H        35.2462276161       30.3688927280        2.6900498422
  H        37.5048059157       27.4410495840        4.8873655302
  H        38.6140715103       29.2763000968        6.1751327061
  H        37.0187666604       29.4516211566        1.2741775661
  H        25.7321447703        8.6119043864        4.6465215192
  H        36.4551427444       32.2419112837       12.1112288017
  H        35.3412736708       30.4249769002       13.4058231817
  H        37.5246070167       27.4871310562       11.1451687764
  H        38.6134507369       29.3158400163        9.8381108383
  H        37.0406763643       29.4687710147       14.8258894602
  H        46.1092179414       26.5875362985       11.3855664885
  H        44.6682328100       35.1161432401        7.8139599121
  H        24.4400836763        3.0345323621       12.0798632391
  H        25.5779069283        4.8712197376       13.3296617900
  H        23.1763558580        7.7656344746       11.2436977881
  H        22.0502795573        5.9169177856        9.9936273746
  H        23.8000421699        5.7874586972       14.8108303064
  H        44.9536617198       34.3901369462        9.6949629442
  H        44.9016855875       34.2067492759        6.4906474065
  H        40.6657180775       33.2089184788       10.8530545612
  H        23.1505137258        1.9576806278        8.0048646616
  H        25.8442953400       19.6308978938        3.8817723442
  H        23.6700341179       19.6869650065        2.6569497685
  H        22.3442255424       16.2461374936        4.8710709382
  H        24.5190009959       16.2122229575        6.0990703360
  H        23.7262223877       17.6761681520        1.2415959349
  H        35.1255082099       15.4514545222        3.9913139753
  H        37.2494107682       15.3943746164        2.6770063399
  H        38.6820745652       18.8066009885        4.8693942440
  H        36.5527307499       18.8467860141        6.1818720287
  H        37.2188664445       17.3753265326        1.2377008404
  H        20.3649335737       17.9899391846        4.6687350446
  H        35.1580797061       15.4352902736       12.0894342769
  H        37.2982965622       15.3619760494       13.3722419926
  H        38.7276898293       18.7662459216       11.1651103401
  H        36.5845623501       18.8180747029        9.8774214581
  H        37.2332668997       17.3611456226       14.7840448176
  H        35.1448456802       26.6818780893       11.3956725673
  H        28.5043391082       21.0723407655        7.9723203915
  H        25.7483780591       19.6427020731       12.1499674893
  H        23.5641467460       19.6974452952       13.3640595901
  H        22.3020475314       16.1799029881       11.2358145254
  H        24.4875066609       16.1463200282       10.0180815528
  H        23.7021810688       17.6618896667       14.7909671243
  H        29.0155840351       21.7166828837        9.7518056462
  H        29.1807751229       21.7328596111        6.6404500248
  H        32.0668942136       18.5364506024       11.0079958934
  H        27.4084807030       19.0767653571        8.0868646904
  H        14.8468771658       19.6471446168       12.1417989763
  H        17.0088852281       19.6938921901       13.3856974389
  H        18.3030441978       16.1892533215       11.2548669288
  H        16.1369118656       16.1579727454       10.0106450889
  H        16.9221338247       17.6985630617       14.8514642694
  H        46.0931455415       15.4362345825       12.0631310663
  H        43.9675969785       15.3680467427       13.3678068488
  H        42.5428908514       18.8019297684       11.2035733023
  H        44.6690076537       18.8446293439        9.8881788763
  H        44.0157673363       17.3090564856       14.8313153706
  H        20.2876040014       17.9250487659       11.4207470421
  H        46.0354090892       15.3817154039        4.0369359564
  H        43.9045218780       15.3139319135        2.7440647546
  H        42.5135291323       18.7855138663        4.8687827100
  H        44.6509451908       18.8390883476        6.1629976702
  H        43.9999543116       17.2932436748        1.2804541853
  H        46.1993464067       26.6826263478        4.6233491319
  H        52.7412920157       21.0627539273        8.1947034801
  H        14.8801485944       19.6765997820        3.8971630480
  H        17.0809381996       19.7539347645        2.7189825603
  H        18.3423354355       16.2398551216        4.8532164943
  H        16.1434064673       16.1861472355        6.0409411492
  H        16.9457143316       17.7169082611        1.2987242344
  H        52.3230088496       21.6734312944        6.2940370662
  H        52.0136860757       21.7024419662        9.4957376593
  H        49.0673972217       18.6075455585        5.2038823612
  H        13.2476195966       19.0162265110        7.9773701188
  H        29.9715745639       12.4305696816       12.1937185738
  H        28.9121950016       10.4938269387       13.3678987150
  H        25.2479719046       11.2121467847       11.2348655961
  H        26.3263740579       13.1372126535       10.0551938454
  H        27.2153881594       11.6469832375       14.7862693827
  H        30.9949163118       22.7708413771       12.0184369940
  H        32.0018584189       24.6526182050       13.3141666461
  H        35.6907125077       24.1434262906       11.1617150832
  H        34.6617589419       22.2706018132        9.8587740005
  H        33.6630930609       23.5853794474       14.7579819977
  H        25.7174402110        8.5889808442       11.4001308241
  H        30.9258552060       22.7384965590        4.0023326813
  H        31.9373634274       24.5896901668        2.6713214650
  H        35.6200155510       24.1244042548        4.8443729205
  H        34.5944883771       22.2679828060        6.1677838871
  H        33.6307524168       23.5742216832        1.2104069532
  H        40.5817298948       17.0717615011        4.6540750078
  H        32.5071166655       14.1542412840        8.2504021427
  H        29.9108684631       12.4920124959        3.9524077151
  H        28.8837273478       10.5962241338        2.6956922608
  H        25.1919708300       11.1993475928        4.8180264473
  H        26.2381790091       13.0879054191        6.0806959864
  H        27.2063809960       11.6634653946        1.2377195419
  H        33.3011012026       14.2067887798        6.4484686463
  H        33.4059860969       14.4105811240        9.5971868305
  H        32.0329713185       18.5393544699        5.1376448854
  H        30.2156283634       14.1910718302        8.0771027232
  H        16.1184510560        2.9633369146       12.1298403444
  H        14.9532939767        4.8204162843       13.3225782974
  H        17.3660730583        7.6859865460       11.2099602514
  H        18.5147523678        5.8184297034       10.0101499434
  H        16.7535773977        5.7396534005       14.7715465749
  H        44.8281560095       32.1401710712       11.9769979668
  H        45.9374106032       30.3412563260       13.3064260424
  H        43.6822463006       27.3781190846       11.1525330854
  H        42.5995321843       29.1900290457        9.8099653787
  H        44.2302137200       29.4365313109       14.7689120923
  H        14.8512342473        8.5463359824       11.3633250606
  H        44.8998916821       32.2339492261        3.9318304238
  H        46.0247863534       30.4128975670        2.6523224773
  H        43.7633968170       27.4839893801        4.8453299292
  H        42.6455831209       29.3177114817        6.1243562403
  H        44.2683646810       29.4702887939        1.2182213615
  H        35.0639708841       26.6266759685        4.6347586140
  H        36.6051120394       35.1340537684        8.1806544424
  H        16.1437651471        3.0130067604        3.9039939884
  H        14.9741850245        4.8563489065        2.6882437871
  H        17.3958148303        7.7473347367        4.7554259898
  H        18.5428750641        5.8934229787        5.9830663683
  H        16.7646634585        5.7555893103        1.2192980067
  H        36.2784792014       34.4826335860        6.2732195840
  H        36.3806793006       34.2092469531        9.4997470926
  H        40.5799967029       33.2024948581        5.1536588517
  H        17.4707190798        1.9472964651        7.9741889847
  H        29.0496648426       19.2324520298       12.5357974543
  H        29.7259882982       19.7414225729        3.5759033957
  H        30.6864692134       15.4198985369        3.8833681862
  H        31.4907307169       15.6876228277       12.6032706311
  H        28.4321400745       17.8769639084       15.0090985353
  H        30.1117561397       15.5054073210       14.9843497306
  H        32.3218922157       16.1105890712        2.1880756539
  H        28.6713662819       16.0768384674        1.5091032986
  H        32.7185831475       19.3287030301       16.2888117968
  H        18.8540084643        0.8691304597       12.3353174044
  H        40.5281262837       35.2290748354        3.9520133937
  H        42.3237630544       34.4184228501        3.5905505176
  H        22.0877725293        0.6920693682       12.3514932848
  H        11.5971121395       18.7127157182       12.3822834264
  H        52.2651707598       18.4311986966        3.6775314490
  H        49.2550628882       16.4768084321        3.5844140699
  H        10.1504309660       15.7982689555       12.2927479532
  H        50.8502868731       17.6925947281        3.9541532026
  H        10.0462550648       17.3946708393       12.0519245774
  H        20.2154351628        0.0023207076       12.0418750275
  H        39.1839315152       36.1247666340        3.6864512411
 Ni        29.8484923749       17.4754412132        2.9993929194
 Ni        31.7057763118       17.1398000055       -0.0801395865
 Ni        30.3998356037       18.9127337157       -0.2454294862
 Ni        30.2278501248       17.4429399716       13.4010101428
  O        10.6499268315       14.3651779879        5.4858215617
  O        12.6131832865       14.6575819994        6.5838839616
  O        49.1476455196       16.8458983093        7.9896361938
  O        50.3502283880       20.9357084951        5.6480139143
  O        48.3485371993       20.5932145692        6.6659279388
  O        11.0515358892       17.0538569346        6.5007106639
  O        50.3209393012       20.8816167136       10.4068250523
  O        48.3466772757       20.5866715765        9.3270572292
  O        49.5436952751       18.2483828371       10.0681374388