     574
 i =      154, E =     -4778.8631813056
  C        11.8586454178       14.0534028327        5.7415607839
  C        12.4560862543       12.8903985821        5.0233057361
  C        11.7045384705       12.1717433533        4.0813280040
  C        12.2809047799       11.1095171586        3.3889992512
  C        13.6213684503       10.7394655579        3.6169840585
  C        14.3543597100       11.4427347774        4.5908086171
  C        13.7814784714       12.5077163693        5.2823033024
  C        14.2609265908        9.6488202712        2.8436031466
  C        14.2563091489        9.6567945153        1.4219033700
  C        13.7432036290       10.7589405485        0.6679842844
  C        49.1266015958       21.2334569388        5.8796867694
  C        48.5498240326       22.4013384936        5.1526360302
  C        49.2998884675       23.0686996315        4.1716845801
  C        48.7329349572       24.1077893513        3.4384489418
  C        47.4023489338       24.5093386391        3.6669920797
  C        46.6713767849       23.8604522585        4.6804863638
  C        47.2338475772       22.8155898392        5.4098767427
  C        46.7721012329       25.5870199382        2.8697167927
  C        46.7612066534       25.5574138144        1.4479577936
  C        47.2611802703       24.4423393695        0.7044643251
  C        14.8602938016        8.5704811444        0.7086409732
  C        14.8916618108        8.5968368672        3.5202461789
  C        49.1130652858       21.2035550628       10.1454360019
  C        48.5277040711       22.3648838075       10.8725395113
  C        49.2669282667       23.0256656723       11.8654122161
  C        48.6905335225       24.0601735853       12.5968713064
  C        47.3601261454       24.4569328029       12.3585636141
  C        46.6396979758       23.8119024086       11.3351275799
  C        47.2133107580       22.7760464950       10.6033359189
  C        46.7215966858       25.5318235611       13.1496034152
  C        46.7334046960       25.5282014508       14.5713015621
  C        47.2489252950       24.4290417720       15.3277036656
  C        40.6339979068       17.1542576477       15.3251917688
  C        40.6546341034       17.1822960064       12.5164316142
  C        11.8829315133       14.0865235776       10.2856323787
  C        12.4721605068       12.9105991657       10.9897476664
  C        11.7147486295       12.1775752605       11.9160852061
  C        12.2813079265       11.0950898142       12.5844821511
  C        13.6200065512       10.7210794043       12.3523802612
  C        14.3578761245       11.4364647155       11.3913566786
  C        13.7924600594       12.5176483234       10.7186841771
  C        14.2536990128        9.6244119871       13.1228212262
  C        14.2524573908        9.6444273378       14.5446593558
  C        13.7426358480       10.7534022496       15.2917302959
  C        22.5101285438        3.2442713296        5.7516962096
  C        23.2204968919        4.3499496382        5.0485612492
  C        24.2149210694        4.0708422959        4.0994798231
  C        24.8385192942        5.1109946450        3.4152467841
  C        24.4832591378        6.4524087877        3.6598758391
  C        23.5163958793        6.7229919204        4.6453167884
  C        22.8882698304        5.6847140557        5.3280268222
  C        25.0881375913        7.5597122549        2.8848185679
  C        25.0644974085        7.5531775684        1.4631859573
  C        24.3641756712        6.5541622938        0.7150346839
  C        38.2979547055       31.9278010442        5.8520286361
  C        37.5560909903       30.8391816677        5.1512073465
  C        36.5914039020       31.1462051978        4.1790608301
  C        35.9612057571       30.1283952306        3.4681799619
  C        36.2802710842       28.7769506915        3.7058448697
  C        37.2138691505       28.4774026878        4.7161021598
  C        37.8480852029       29.4941910171        5.4264324055
  C        35.6713613892       27.6887004270        2.9059577890
  C        35.7135912474       27.7033182795        1.4842405671
  C        36.4271370218       28.7043274491        0.7521894726
  C        25.6901421921        8.6229788683        0.7451817004
  C        25.6835153046        8.6342676777        3.5575171875
  C        38.3307715911       31.9611138055       10.1603754500
  C        37.6147536302       30.8885364263       10.9103010066
  C        36.6831510165       31.1986281845       11.9131816885
  C        36.0738923736       30.1819471671       12.6466115739
  C        36.3812287280       28.8284036818       12.4015777759
  C        37.2937996489       28.5282551927       11.3714098253
  C        37.9049024514       29.5414218283       10.6390951308
  C        35.7668036610       27.7298795359       13.1833480105
  C        35.7623178772       27.7245267243       14.6058689266
  C        36.4488117316       28.7154693566       15.3755780853
  C        46.1353418196       26.6208004393       15.2814398430
  C        46.0875667119       26.5801320551       12.4735483604
  C        22.4618475339        3.2563638407       10.2567780982
  C        23.1578266560        4.3659461279       10.9768970752
  C        24.1633440079        4.0813171948       11.9144986705
  C        24.7925335481        5.1124813481       12.6080027980
  C        24.4364273096        6.4579770009       12.3867611538
  C        23.4542270224        6.7359399868       11.4173446175
  C        22.8205423216        5.7050481533       10.7241231788
  C        25.0661145520        7.5566410236       13.1617085438
  C        25.0535486942        7.5512960510       14.5843537463
  C        24.3570160065        6.5545951040       15.3382119752
  C        26.5701062282       17.8226613843        5.7867841876
  C        25.2707599239       17.8751814952        5.0540355447
  C        25.0119271674       18.8833101481        4.1124744841
  C        23.8030307596       18.9053208819        3.4206388716
  C        22.8187740995       17.9239142299        3.6523954880
  C        23.0725126293       16.9390200151        4.6251022080
  C        24.2835435152       16.9107800142        5.3131157100
  C        21.5506118676       17.9133595160        2.8841626219
  C        21.5580057996       17.8984824041        1.4626351381
  C        22.7672900191       17.7766925400        0.7079110620
  C        34.4407935324       17.1947489279        5.9230785688
  C        35.7345685548       17.1478273199        5.1818532920
  C        35.9338252840       16.1897490527        4.1755159824
  C        37.1129466950       16.1830155476        3.4359823055
  C        38.1236777312       17.1323618977        3.6838677232
  C        37.9265369416       18.0699005027        4.7152648694
  C        36.7444968217       18.0828722414        5.4518343778
  C        39.3775136345       17.1452739007        2.8977417143
  C        39.3742897773       17.1695215833        1.4764258600
  C        38.1685518697       17.3040714528        0.7181545413
  C        20.3145336633       17.9210470238        0.7503996683
  C        20.3252770814       17.9135986176        3.5633251193
  C        34.4772042618       17.2476794817       10.1850631908
  C        35.7790861504       17.1795347867       10.9088985383
  C        35.9948315488       16.1981191645       11.8877774260
  C        37.1799534674       16.1857113290       12.6174207726
  C        38.1771803114       17.1526153787       12.3851679505
  C        37.9676946085       18.1089765412       11.3747330046
  C        36.7798060598       18.1275225760       10.6491350407
  C        39.4235310609       17.1735356781       13.1804841635
  C        39.3980013708       17.1848511518       14.6010542516
  C        38.1797552458       17.3096517944       15.3412183805
  C        35.1239685715       26.6463721075       15.3049962447
  C        35.1816349131       26.6589068735       12.4955650400
  C        26.5700600724       17.8272819393       10.3226850565
  C        25.2546996979       17.8729134751       11.0265595021
  C        24.9923865009       18.8761712974       11.9715072792
  C        23.7745320240       18.9013682797       12.6449674102
  C        22.7912412850       17.9233514311       12.3956686772
  C        23.0481535710       16.9449600999       11.4184726605
  C        24.2668543735       16.9174643054       10.7436807425
  C        21.5262512196       17.9056371275       13.1650220178
  C        21.5449158825       17.8918584194       14.5861293492
  C        22.7606880667       17.7726221498       15.3316259078
  C        14.0457702251       17.8309522937       10.2847918833
  C        15.3521483498       17.8923157941       11.0031635805
  C        15.6120534524       18.9016093655       11.9429163814
  C        16.8227448548       18.9242217010       12.6318533880
  C        17.8051262437       17.9403593969       12.4016369293
  C        17.5510674842       16.9566429918       11.4278085452
  C        16.3399169369       16.9295483049       10.7404838169
  C        19.0715345008       17.9200345962       13.1721461775
  C        19.0638107001       17.9123854238       14.5938484726
  C        17.8530072246       17.8148316963       15.3492797493
  C        46.8063212945       17.2204751076       10.1600611957
  C        45.5188038165       17.1652308516       10.9093121104
  C        45.3124096907       16.1930422808       11.9000854281
  C        44.1326327787       16.1831623588       12.6392961065
  C        43.1302139492       17.1453914141       12.4086505311
  C        43.3341845069       18.0974794304       11.3917851415
  C        44.5145585465       18.1114256131       10.6538799474
  C        41.8776056266       17.1637655501       13.1967857080
  C        41.8817199708       17.1634648464       14.6183904342
  C        43.0900364043       17.2531578935       15.3785717517
  C        20.3075608522       17.9173968467       15.3062110721
  C        20.2971373323       17.8990799858       12.4938397443
  C        46.7856979815       17.2306136962        5.8908346864
  C        45.4812950021       17.1252548257        5.1787449030
  C        45.2619033810       16.1310458814        4.2135002696
  C        44.0732802964       16.1085616374        3.4883473692
  C        43.0756561435       17.0770517405        3.7122667764
  C        43.2843676306       18.0391223241        4.7178441477
  C        44.4741840335       18.0683421647        5.4376380440
  C        41.8309824228       17.1074385273        2.9142327298
  C        41.8580850324       17.1324782676        1.4937806414
  C        43.0788215709       17.2359012870        0.7551083417
  C        46.1530867176       26.6372178442        0.7261905782
  C        46.1620895277       26.6561149804        3.5358249572
  C        14.0405972951       17.8280370346        5.7064606682
  C        15.3557492353       17.8953645483        5.0075684683
  C        15.6269885240       18.9124623300        4.0805839456
  C        16.8517307245       18.9457762690        3.4186691458
  C        17.8302099885       17.9609478854        3.6595373576
  C        17.5650928050       16.9709344742        4.6227101826
  C        16.3425228854       16.9371954114        5.2881931671
  C        19.0963391100       17.9365787408        2.8917468299
  C        19.0768900979       17.9200090638        1.4706364638
  C        17.8593141530       17.8179018201        0.7255819756
  C        28.8056469933       14.0848266478       10.3616464579
  C        28.1970809318       12.9162115307       11.0588768435
  C        28.9167515473       12.1937044975       12.0216360429
  C        28.3193448627       11.1209495884       12.6790126030
  C        26.9885338511       10.7489069215       12.3998260382
  C        26.2904245410       11.4547661245       11.4033319010
  C        26.8853125354       12.5267999519       10.7435577477
  C        26.3194061194        9.6696618839       13.1621636920
  C        26.3017569091        9.6964368118       14.5833505681
  C        26.8050152129       10.8082321100       15.3310557648
  C        32.1804612827       21.2432763285       10.1426618406
  C        32.7766838801       22.4106612355       10.8600818270
  C        32.0276889703       23.0880629829       11.8346244535
  C        32.5972688972       24.1265803322       12.5651133813
  C        33.9326942127       24.5156742096       12.3440222998
  C        34.6644795868       23.8569957713       11.3377587959
  C        34.0967475755       22.8133101453       10.6084720065
  C        34.5594110331       25.5895095230       13.1495407625
  C        34.5391971114       25.5620799774       14.5716582824
  C        34.0236862069       24.4475972290       15.3061934776
  C        25.6888663728        8.6188605524       15.3003505215
  C        25.6846552263        8.6180418458       12.4875296312
  C        32.0798627338       21.2021945759        5.8811159299
  C        32.6461657584       22.3664032365        5.1377013023
  C        31.9114705472       23.0147295660        4.1324867303
  C        32.4850730495       24.0521844591        3.3988089334
  C        33.8059752343       24.4733740862        3.6521876117
  C        34.5208912111       23.8389129072        4.6866438223
  C        33.9538006571       22.7968770738        5.4144676800
  C        34.4475130399       25.5581202725        2.8719564925
  C        34.4793705523       25.5470477389        1.4497795771
  C        33.9936467527       24.4414331413        0.6828627718
  C        40.6215844356       17.1422685822        0.7692388493
  C        40.6000268314       17.1313407454        3.5783911791
  C        28.7354313865       14.0627237286        5.8205325400
  C        28.1243296902       12.9177487583        5.0825098750
  C        28.8634767059       12.2090857034        4.1226323666
  C        28.2792542072       11.1572149148        3.4210170210
  C        26.9406606172       10.7846694247        3.6567787812
  C        26.2188360918       11.4787260652        4.6459357823
  C        26.8004969671       12.5331163079        5.3473036251
  C        26.2981909158        9.6960084512        2.8817601156
  C        26.2937225645        9.7092418078        1.4600216188
  C        26.8003728145       10.8147926963        0.7071363660
  C        18.1354620781        3.1808745041       10.3172063743
  C        17.4061172122        4.2781338295       11.0158001478
  C        16.3903139237        3.9997657246       11.9432093457
  C        15.7425856863        5.0397459059       12.6067100584
  C        16.0945576954        6.3834533590       12.3670826568
  C        17.0841047432        6.6529904842       11.4034982277
  C        17.7331953977        5.6156429741       10.7384493700
  C        15.4702169963        7.4911331501       13.1301442832
  C        15.4855455580        7.4904929902       14.5518534435
  C        16.1871312820        6.4968900468       15.3050133805
  C        42.9457503772       31.8595753219       10.0728457114
  C        43.6460516940       30.7718605193       10.8168033760
  C        44.5916461540       31.0931228876       11.8028267310
  C        45.1973218960       30.0875414549       12.5504615839
  C        44.8707431278       28.7345092437       12.3356541457
  C        43.9448579885       28.4202074984       11.3224901036
  C        43.3360823920       29.4253947179       10.5744763338
  C        45.4883360494       27.6552223249       13.1388403674
  C        45.4925096477       27.6808534061       14.5605290633
  C        44.8053783991       28.6888928602       15.3071216283
  C        14.8565244055        8.5629545535       15.2642112291
  C        14.8748654164        8.5628441602       12.4515388596
  C        42.9464186815       31.9616122119        5.8089984479
  C        43.6915437304       30.8854774870        5.0954312028
  C        44.6561944837       31.1913835473        4.1231854676
  C        45.2776938139       30.1717822914        3.4054628760
  C        44.9537942312       28.8214837185        3.6430202871
  C        44.0201061982       28.5238196428        4.6536021510
  C        43.3918581697       29.5405976911        5.3657722615
  C        45.5627812591       27.7240802643        2.8577439395
  C        45.5330742899       27.7173620980        1.4364528052
  C        44.8266816515       28.7075509238        0.6835140137
  C        35.0963460158       26.6373947374        0.7504543464
  C        35.0553386317       26.6159598495        3.5607747861
  C        18.1486115514        3.2468430869        5.7065763585
  C        17.4299570732        4.3436712264        4.9972765682
  C        16.4147213820        4.0523866365        4.0737513219
  C        15.7664024589        5.0830178174        3.3983587783
  C        16.1210307019        6.4282503625        3.6211216679
  C        17.1125177570        6.7116335491        4.5782601905
  C        17.7602027711        5.6827264618        5.2580197873
  C        15.4905773739        7.5239597084        2.8486528875
  C        15.4965319069        7.5073833466        1.4275182978
  C        16.1933338459        6.5057008021        0.6808279913
  H        10.6724931150       12.4660472418        3.9041019269
  H        11.6946925712       10.5511996291        2.6622720129
  H        15.3912741797       11.1678779262        4.7728120754
  H        14.3508019867       13.0706592654        6.0180610626
  H        13.3762082957       11.6310789982        1.2012807508
  H        50.3226272259       22.7487248157        3.9870115741
  H        49.3194179375       24.6230994348        2.6809018020
  H        45.6418570420       24.1611631455        4.8635972418
  H        46.6628098776       22.2903178352        6.1719293544
  H        47.6297714705       23.5759820179        1.2461434796
  H        14.8719171893        8.5880088327        4.6085508518
  H        50.2869839773       22.7028504442       12.0603264197
  H        49.2689177436       24.5757324048       13.3603062360
  H        45.6102972007       24.1091349316       11.1460385569
  H        46.6524817501       22.2538447168        9.8318061528
  H        47.6077413067       23.5519291466       14.7968228460
  H        40.6611588827       17.1477908327       11.4287011967
  H        48.6870050411       14.0949045980        7.8000076987
  H        10.6813632974       12.4668188796       12.0937035523
  H        11.6895554868       10.5247687333       13.2972740152
  H        15.3932105342       11.1583645779       11.2051814863
  H        14.3647515074       13.0868808522        9.9900124477
  H        13.3758273606       11.6220202094       14.7530916360
  H        47.9301320788       14.2180842017        9.7109079444
  H        47.7800357801       14.3734429676        6.4951397894
  H        49.0839270855       18.5526548684       10.8676143126
  H        10.4159683395       14.1342379451        7.9987633162
  H        24.4770539737        3.0325438723        3.9086733962
  H        25.6103703836        4.8943988859        2.6798925485
  H        23.2345908926        7.7556154575        4.8404608381
  H        22.1198499315        5.8841605343        6.0709020861
  H        23.8013431560        5.7973872854        1.2536746253
  H        36.3604027425       32.1903971994        3.9819810962
  H        35.2144160552       30.3717139055        2.7155450887
  H        37.4684280762       27.4371419131        4.9083839958
  H        38.5945439009       29.2689194166        6.1845217744
  H        36.9881778686       29.4539586549        1.3024891297
  H        25.7154238389        8.6169809720        4.6454228134
  H        36.4557295324       32.2430245140       12.1146006841
  H        35.3447501232       30.4294440723       13.4149620175
  H        37.5448503870       27.4879073009       11.1753985648
  H        38.6300865995       29.3131399080        9.8617702205
  H        37.0275363462       29.4733505204       14.8552829871
  H        46.1089216839       26.5874979975       11.3855116761
  H        44.6682469286       35.1161745298        7.8139553245
  H        24.4423710818        3.0434074984       12.0815893618
  H        25.5754091519        4.8846381796       13.3282817726
  H        23.1676952164        7.7700967341       11.2372620650
  H        22.0464166429        5.9170184849        9.9902282942
  H        23.7883332496        5.7984508038       14.8047425914
  H        44.9536842183       34.3903393807        9.6951908974
  H        44.9017164848       34.2068072605        6.4906151848
  H        40.6662805529       33.2090813240       10.8531842776
  H        23.1502731729        1.9579162848        8.0048379618
  H        25.7644385459       19.6496527189        3.9409491488
  H        23.6047534290       19.6918740758        2.6956803121
  H        22.3214253109       16.1739588273        4.8108331499
  H        24.4933390903       16.1386753693        6.0496346892
  H        23.7056478252       17.6557166566        1.2412775279
  H        35.1454189516       15.4650565307        3.9849961296
  H        37.2700712501       15.4324595736        2.6643506338
  H        38.6993720723       18.8106240497        4.9099855313
  H        36.5744971004       18.8218074889        6.2315278422
  H        37.2303771832       17.4365691918        1.2497734981
  H        20.3285216329       17.9484900173        4.6513150393
  H        35.2150127010       15.4622515793       12.0704653952
  H        37.3490119382       15.4223662732       13.3737655196
  H        38.7322720209       18.8613362787       11.1925676153
  H        36.5943057061       18.8834894226        9.8898272882
  H        37.2501084707       17.4444584175       14.7954358547
  H        35.1633348435       26.6846829359       11.4076675466
  H        28.5085172230       21.0897977173        7.9994972765
  H        25.7559651206       19.6276226397       12.1597127823
  H        23.5694999029       19.6832462620       13.3730572180
  H        22.2962733287       16.1835022798       11.2215378473
  H        24.4830171485       16.1506143636       10.0036505018
  H        23.6937746111       17.6480902743       14.7902246877
  H        29.0123197637       21.7158635431        9.7600267535
  H        29.1257947954       21.7544361619        6.6076131464
  H        32.0790520481       18.5812017532       10.9921959194
  H        27.3968327544       19.0821029785        8.0771773891
  H        14.8544979174       19.6620775076       12.1185697562
  H        17.0224291047       19.7112324849       13.3558975077
  H        18.3010553592       16.1904556695       11.2423948211
  H        16.1293932436       16.1571431996       10.0046671597
  H        16.9124638606       17.7049353861       14.8174037455
  H        46.0934253931       15.4589438176       12.0837345238
  H        43.9720852231       15.4214618632       13.3990801372
  H        42.5679608689       18.8483184776       11.2103338195
  H        44.6892892539       18.8606198391        9.8853065574
  H        44.0324641632       17.3672043250       14.8505497708
  H        20.2948631857       17.9318300639       11.4058031063
  H        46.0387454387       15.3917021099        4.0323682485
  H        43.9053827718       15.3384035311        2.7386599740
  H        42.5180748477       18.7903707921        4.8971470802
  H        44.6583347804       18.8308497950        6.1903917273
  H        44.0127138036       17.3355689484        1.3006356025
  H        46.1988959572       26.6826575965        4.6232714930
  H        52.7411762401       21.0626225357        8.1946729055
  H        14.8686292255       19.6702878230        3.8968605745
  H        17.0640579540       19.7374873755        2.7034290014
  H        18.3135647744       16.2047286728        4.8138806139
  H        16.1204897707       16.1617550527        6.0172425837
  H        16.9235658431       17.7103944836        1.2659138147
  H        52.3224446187       21.6735382466        6.2945372539
  H        52.0133404493       21.7023259812        9.4955354793
  H        49.0672029673       18.6079328616        5.2042432629
  H        13.2472048619       19.0163233467        7.9760534225
  H        29.9392434883       12.4902114545       12.2443299982
  H        28.8795304248       10.5587494149       13.4229670184
  H        25.2617931278       11.1785498113       11.1808696322
  H        26.3438244093       13.0930007474        9.9897223936
  H        27.1719243134       11.6765572851       14.7920256071
  H        31.0032560285       22.7725995916       12.0168914179
  H        32.0102061353       24.6497705318       13.3167415082
  H        35.6983052452       24.1467392772       11.1609676734
  H        34.6687657082       22.2789094560        9.8534081911
  H        33.6756145005       23.5769351180       14.7575779088
  H        25.7184173051        8.5981113058       11.3996423159
  H        30.8936461086       22.6876694350        3.9309426065
  H        31.9077301254       24.5540737812        2.6253147664
  H        35.5431622119       24.1512519786        4.8897324210
  H        34.5138099084       22.2859325177        6.1940754100
  H        33.6221501374       23.5655363088        1.2069376631
  H        40.5917963210       17.0847428554        4.6656831177
  H        32.5219252965       14.1472744382        8.2604009470
  H        29.8993686758       12.4903046943        3.9467415153
  H        28.8597239401       10.6048653188        2.6851770933
  H        25.1835245287       11.2027324380        4.8354904738
  H        26.2399409222       13.0849074961        6.0983072450
  H        27.1621687141       11.6883754817        1.2414800566
  H        33.2944271665       14.1858917878        6.4314125580
  H        33.4109240986       14.3980660362        9.6117153467
  H        32.2183830949       18.5762096902        5.1918035117
  H        30.2298405499       14.1940175150        8.0762107867
  H        16.1181794792        2.9632606403       12.1295070285
  H        14.9530249966        4.8203681205       13.3222496450
  H        17.3666245932        7.6858605238       11.2104866243
  H        18.5153166510        5.8182714011       10.0106846930
  H        16.7537011838        5.7395632198       14.7715062116
  H        44.8280283590       32.1401889504       11.9769644337
  H        45.9372279902       30.3412432078       13.3063849144
  H        43.6820295270       27.3781578265       11.1524469655
  H        42.5994389229       29.1900850531        9.8098271601
  H        44.2299534933       29.4365938972       14.7687988302
  H        14.8510735245        8.5460239296       11.3633213029
  H        44.8999000379       32.2340484277        3.9318567741
  H        46.0246920080       30.4129583742        2.6523006290
  H        43.7629632626       27.4841100896        4.8450358322
  H        42.6452366752       29.3178286213        6.1241056006
  H        44.2681215822       29.4703939386        1.2181097638
  H        35.0045357315       26.6285909625        4.6479340342
  H        36.6051955327       35.1339700226        8.1806651643
  H        16.1436226514        3.0128057584        3.9040657325
  H        14.9740252050        4.8561682874        2.6883335112
  H        17.3960311969        7.7470988179        4.7551402040
  H        18.5431199992        5.8931498154        5.9827445556
  H        16.7647578307        5.7554673546        1.2192888144
  H        36.2788045717       34.4821281302        6.2732931235
  H        36.3808030783       34.2090664181        9.4996211197
  H        40.5789124549       33.2015774357        5.1541040431
  H        17.4709220691        1.9469557256        7.9741169964
  H        29.1558895418       19.5448061369       12.5593941151
  H        29.9472086343       19.4883614244        3.2172558978
  H        30.7494091376       15.3593550477        3.8376096326
  H        30.8526850710       15.5356407795       12.3801783955
  H        28.0776924049       18.2154097634       14.6892271963
  H        28.9505331760       15.5102083327       14.4563456836
  H        31.5132951857       19.8727387550        1.7897742464
  H        32.9955733364       17.3055425937       -0.1047540655
  H        29.1491769081       16.4744876959        1.2409221620
  H        32.4047607365       17.0232553342       13.5551778258
  H        18.8535668020        0.8690579326       12.3351953116
  H        40.5281184896       35.2290216851        3.9521595414
  H        42.3235871198       34.4184969264        3.5908136042
  H        22.0877825895        0.6917817826       12.3516396230
  H        11.5966624004       18.7130958683       12.3828026862
  H        52.2647029397       18.4312848245        3.6772887051
  H        49.2552005694       16.4768745135        3.5843730975
  H        10.1504663900       15.7981054560       12.2923933654
  H        50.8498812481       17.6924976860        3.9541397108
  H        10.0461490350       17.3944735357       12.0519254119
  H        20.2148345750        0.0022134146       12.0419772829
  H        39.1836438036       36.1243571194        3.6864062253
 Ni        30.9456005861       17.5716179082        2.9125623433
 Ni        31.0712664923       16.2787409312       -0.4940308221
 Ni        29.8434593880       18.7440858357        0.2514602713
 Ni        30.1426262791       17.5507821422       13.3215381201
  O        10.6499058033       14.3650837976        5.4857476550
  O        12.6131115773       14.6573595927        6.5838744291
  O        49.1480236258       16.8459038328        7.9896785168
  O        50.3501358998       20.9362719684        5.6482212348
  O        48.3485344804       20.5933517547        6.6659306818
  O        11.0512770394       17.0540762963        6.5006025739
  O        50.3208873422       20.8816852494       10.4068786335
  O        48.3467359116       20.5868344039        9.3271399141