     571
 i =      249, E =     -4761.5931566710
  C        11.8590498601       14.0535413432        5.7415329308
  C        12.4565551732       12.8906031707        5.0234557457
  C        11.7049290094       12.1717769897        4.0816257396
  C        12.2813390141       11.1096312983        3.3892403320
  C        13.6218487824       10.7396704643        3.6171789593
  C        14.3548971607       11.4430978150        4.5908518696
  C        13.7820215312       12.5080740519        5.2823744528
  C        14.2614456652        9.6490911357        2.8437057614
  C        14.2568835469        9.6571617815        1.4220039328
  C        13.7439598183       10.7594253808        0.6681319371
  C        49.1273384323       21.2328228511        5.8794593653
  C        48.5509433533       22.4009761836        5.1524731262
  C        49.3008356134       23.0680438154        4.1711913707
  C        48.7339744752       24.1073513562        3.4381406653
  C        47.4036142188       24.5094682779        3.6671105995
  C        46.6728683702       23.8609067356        4.6809996811
  C        47.2352584588       22.8159103300        5.4102387971
  C        46.7732727919       25.5871756220        2.8699070697
  C        46.7621725020       25.5575819988        1.4481350619
  C        47.2621883229       24.4425872876        0.7045448156
  C        14.8608494485        8.5708669738        0.7086897799
  C        14.8920503962        8.5970014201        3.5203099369
  C        49.1134798067       21.2036341385       10.1454711641
  C        48.5282691718       22.3650649122       10.8725244836
  C        49.2674699789       23.0257339213       11.8655099525
  C        48.6911770350       24.0603434194       12.5969227635
  C        47.3607930605       24.4572483544       12.3586472817
  C        46.6404528974       23.8124596203       11.3349778965
  C        47.2139725024       22.7765231309       10.6032255860
  C        46.7222876411       25.5321408678       13.1497374488
  C        46.7341582790       25.5284611635       14.5714449891
  C        47.2498083104       24.4293206688       15.3277847277
  C        40.6311133774       17.1323865523       15.2974689693
  C        40.6276750006       17.1307770614       12.4882192196
  C        11.8832938554       14.0866811396       10.2853459148
  C        12.4728062757       12.9110722444       10.9896401193
  C        11.7155767225       12.1780957649       11.9161783563
  C        12.2823236615       11.0957699994       12.5846483301
  C        13.6210539748       10.7218729424       12.3524912961
  C        14.3587066012       11.4371590942       11.3912128765
  C        13.7931128187       12.5181954999       10.7184490618
  C        14.2547121772        9.6251485009       13.1228927390
  C        14.2533786521        9.6450846582       14.5447376652
  C        13.7436013219       10.7540413727       15.2918747828
  C        22.5121267966        3.2462646136        5.7529301982
  C        23.2247654961        4.3550287461        5.0547201085
  C        24.2237505403        4.0814509657        4.1086325361
  C        24.8471818993        5.1250768907        3.4288404348
  C        24.4878751999        6.4657105155        3.6737976479
  C        23.5173796283        6.7307989588        4.6572912006
  C        22.8895668612        5.6890351689        5.3356579194
  C        25.0895302244        7.5753759506        2.8980238328
  C        25.0663786672        7.5648483454        1.4761813887
  C        24.3663126118        6.5632697054        0.7311261167
  C        38.2959610214       31.9259287069        5.8520856482
  C        37.5503885123       30.8359207285        5.1540775375
  C        36.5836354777       31.1410807528        4.1829730607
  C        35.9499539165       30.1225141081        3.4752477721
  C        36.2660484543       28.7701139600        3.7135259492
  C        37.2010633405       28.4725715778        4.7234742635
  C        37.8388445363       29.4901428333        5.4307764277
  C        35.6570265465       27.6807085843        2.9120220434
  C        35.7074201663       27.6940120986        1.4896979351
  C        36.4204100273       28.6968473744        0.7594758754
  C        25.6904117620        8.6330317851        0.7541728633
  C        25.6786865036        8.6565944771        3.5668757517
  C        38.3307210096       31.9602418533       10.1615238698
  C        37.6154402628       30.8875146765       10.9130036139
  C        36.6847024442       31.1973588044       11.9169777507
  C        36.0753523822       30.1808956451       12.6511042982
  C        36.3810630718       28.8268850944       12.4060736855
  C        37.2933122843       28.5271050093       11.3752391838
  C        37.9045441677       29.5399797545       10.6422598018
  C        35.7661410331       27.7270771351       13.1869112669
  C        35.7628918563       27.7179354485       14.6099000844
  C        36.4452513461       28.7093602894       15.3826043067
  C        46.1359815419       26.6209506216       15.2816675068
  C        46.0880737870       26.5804092284       12.4737604996
  C        22.4609462147        3.2567244060       10.2590860741
  C        23.1541356460        4.3658970862       10.9835742492
  C        24.1530968326        4.0804889527       11.9280948019
  C        24.7803557866        5.1108813632       12.6248554574
  C        24.4297278479        6.4573498751       12.3998870924
  C        23.4536071898        6.7358700984       11.4241967205
  C        22.8213895698        5.7057343917       10.7283076168
  C        25.0609641801        7.5566535108       13.1733625652
  C        25.0519051053        7.5546285516       14.5963278534
  C        24.3570487075        6.5598810721       15.3543195633
  C        26.7533861758       17.8748922801        5.6525049386
  C        25.4479241715       17.9577720701        4.9277873739
  C        25.1932295263       18.9304999470        3.9476688620
  C        23.9507273665       18.9807640663        3.3123192256
  C        22.9271822690       18.0598543675        3.6251378887
  C        23.1844161544       17.1101130513        4.6324679339
  C        24.4218406129       17.0577158516        5.2695120070
  C        21.6329035209       18.0439341521        2.8912427897
  C        21.6137595499       17.9853272771        1.4691202101
  C        22.8088021701       17.8338343985        0.6963963013
  C        34.5337740815       17.2947056139        5.9997343053
  C        35.8170744080       17.2431320133        5.2404912891
  C        36.0273281217       16.2297729365        4.2917865347
  C        37.1845379183       16.2175665102        3.5189193482
  C        38.1678691370       17.2107454431        3.6850904058
  C        37.9643488920       18.2048253539        4.6606945225
  C        36.7988049738       18.2281546678        5.4232923870
  C        39.4099427189       17.2029886553        2.8800948484
  C        39.3913235999       17.1823860433        1.4594648545
  C        38.1760152604       17.2768204491        0.7115707408
  C        20.3583376822       17.9873055998        0.7759207009
  C        20.4129824757       18.0518688638        3.5887543620
  C        34.4283466917       17.2144341091       10.2253294696
  C        35.7347358365       17.1311616649       10.9315411473
  C        35.9618548148       16.1442844782       11.9030399506
  C        37.1558533001       16.1272228741       12.6176576131
  C        38.1502880856       17.0952586146       12.3785171619
  C        37.9313644809       18.0534718118       11.3713944890
  C        36.7360612172       18.0763018412       10.6595718656
  C        39.4027287994       17.1202326671       13.1639688360
  C        39.3879510949       17.1423787370       14.5848071200
  C        38.1745888574       17.2572654701       15.3346448042
  C        35.1289750957       26.6357588077       15.3070196787
  C        35.1787653973       26.6583445404       12.4972026860
  C        26.5654323990       17.8252508954       10.3205842842
  C        25.2496073766       17.8748823737       11.0217708366
  C        24.9815907650       18.8839393102       11.9594962419
  C        23.7619449615       18.9105527171       12.6299931335
  C        22.7806805281       17.9275797405       12.3897761594
  C        23.0426267016       16.9439495265       11.4184822786
  C        24.2625234947       16.9155788026       10.7448527005
  C        21.5206856654       17.9088825467       13.1706036934
  C        21.5568727326       17.9150073375       14.5920223694
  C        22.7821651255       17.8010192884       15.3213833926
  C        14.0444629169       17.8249961950       10.2945127923
  C        15.3426737615       17.8744628963       11.0321829780
  C        15.5981979992       18.8800106251       11.9778190988
  C        16.8042594212       18.9004207993       12.6760606221
  C        17.7898395458       17.9179669730       12.4513266536
  C        17.5363560252       16.9322723104       11.4784579719
  C        16.3299957904       16.9076720596       10.7813459060
  C        19.0642787708       17.9107726790       13.2123170374
  C        19.0767455587       17.9282350396       14.6350379648
  C        17.8784791907       17.8390964627       15.4110228379
  C        46.8027384892       17.2149557677       10.1522953551
  C        45.5056536842       17.1452650751       10.8843470126
  C        45.2946215694       16.1639516228       11.8648873368
  C        44.1089362660       16.1441122653       12.5941067023
  C        43.1056898609       17.1054619391       12.3640115978
  C        43.3112326071       18.0625014149       11.3523792642
  C        44.4979480946       18.0864459067       10.6243552756
  C        41.8562825472       17.1225789042       13.1577289820
  C        41.8723414527       17.1380816495       14.5790587109
  C        43.0877650469       17.2428073978       15.3258921236
  C        20.3302701430       17.9521611643       15.3305434050
  C        20.2817991640       17.8865071447       12.5172078806
  C        46.7923822055       17.2368742213        5.8838706257
  C        45.4979701840       17.1498806908        5.1537351620
  C        45.2794951794       16.1612339369        4.1828476977
  C        44.0980221615       16.1528125054        3.4463210743
  C        43.1084766140       17.1304451859        3.6654865096
  C        43.3192672226       18.0918894565        4.6710569846
  C        44.5013521172       18.1064697021        5.4025710889
  C        41.8616533406       17.1609449524        2.8736489774
  C        41.8752980263       17.1565693157        1.4534695635
  C        43.0892015903       17.2483184650        0.7024078642
  C        46.1538861707       26.6373549902        0.7264379578
  C        46.1631566923       26.6562028366        3.5360948803
  C        14.0571081180       17.8406788397        5.7116379148
  C        15.3906726341       17.9370897866        5.0352667208
  C        15.6659174793       18.9630153676        4.1171746868
  C        16.9018676146       19.0214316861        3.4732100073
  C        17.8990663376       18.0538043281        3.7161614256
  C        17.6310774417       17.0581684983        4.6745509642
  C        16.3970263340       16.9996722485        5.3233197473
  C        19.1688298026       18.0413445526        2.9386274886
  C        19.1308953117       17.9939441118        1.5157294481
  C        17.9046834739       17.8683355628        0.7873146779
  C        28.8077544363       14.0944894481       10.3876410011
  C        28.1966651587       12.9183300727       11.0714709375
  C        28.9209068776       12.1788614593       12.0179499430
  C        28.3226984006       11.1043275877       12.6712530612
  C        26.9859511590       10.7463004993       12.4029191621
  C        26.2841616853       11.4652098774       11.4186219553
  C        26.8804194542       12.5393981171       10.7630220376
  C        26.3158754963        9.6689239738       13.1674597863
  C        26.3018092605        9.6991704910       14.5887734986
  C        26.8081959225       10.8126662617       15.3324489587
  C        32.1799238992       21.2370665037       10.1527924688
  C        32.7722269099       22.4028268145       10.8688615270
  C        32.0406886828       23.0485619056       11.8781311939
  C        32.6112886010       24.0907087929       12.6019985137
  C        33.9304092422       24.5127132966       12.3445538283
  C        34.6434005649       23.8835538814       11.3055478763
  C        34.0751435584       22.8383321053       10.5801768465
  C        34.5615342480       25.5841879925       13.1491418318
  C        34.5504440519       25.5493558762       14.5715808985
  C        34.0527166977       24.4256507978       15.3036580042
  C        25.6888113036        8.6238612383       15.3091601461
  C        25.6786104587        8.6169928383       12.4960341853
  C        32.0193290156       21.1645253836        5.7982226660
  C        32.5883074052       22.3350097689        5.0744015246
  C        31.8915323693       22.9569838572        4.0257943073
  C        32.4751265284       24.0097009151        3.3229503145
  C        33.7710760629       24.4668156806        3.6401227875
  C        34.4442075614       23.8588173031        4.7186198731
  C        33.8659236631       22.8069605694        5.4219279021
  C        34.4301357000       25.5494014749        2.8714989030
  C        34.4823088993       25.5323065146        1.4489693726
  C        34.0191957189       24.4186133486        0.6799305364
  C        40.6320218370       17.1474000222        0.7412337003
  C        40.6375834064       17.2068859477        3.5490756241
  C        28.7182747266       14.1015075577        5.8167417857
  C        28.0987545297       12.9580555842        5.0812547230
  C        28.8516569425       12.2276781194        4.1476846375
  C        28.2726183620       11.1732293348        3.4455610906
  C        26.9252258871       10.8163215442        3.6573733190
  C        26.1890245063       11.5325675810        4.6191899832
  C        26.7658568165       12.5912584053        5.3200558526
  C        26.2906108808        9.7179368969        2.8871552989
  C        26.2918569151        9.7232486709        1.4653896435
  C        26.8017172744       10.8250856681        0.7087204227
  C        18.1354643655        3.1808588165       10.3171426003
  C        17.4063036948        4.2782593184       11.0158023684
  C        16.3902161579        4.0000996386       11.9429645865
  C        15.7426305818        5.0402185265       12.6064215202
  C        16.0951248595        6.3838461250       12.3670969280
  C        17.0849095963        6.6531840735       11.4037037685
  C        17.7338511997        5.6157070454       10.7386948327
  C        15.4709289162        7.4916683534       13.1301365414
  C        15.4861072251        7.4909336399       14.5518564072
  C        16.1874004418        6.4971187596       15.3050065473
  C        42.9456830821       31.8595234050       10.0728367974
  C        43.6459897164       30.7718230856       10.8169580889
  C        44.5915687699       31.0932036026       11.8029584064
  C        45.1973073969       30.0877171029       12.5506988941
  C        44.8708903432       28.7346391427       12.3359488241
  C        43.9449406183       28.4202354012       11.3228686367
  C        43.3360850968       29.4253270952       10.5747631547
  C        45.4886719842       27.6553845860       13.1391051424
  C        45.4930009805       27.6809713146       14.5608141711
  C        44.8057763339       28.6888639169       15.3075179934
  C        14.8572158231        8.5634560606       15.2642512349
  C        14.8758431741        8.5635627515       12.4515752827
  C        42.9463687924       31.9615915154        5.8090072445
  C        43.6917293042       30.8854009769        5.0955900463
  C        44.6566576334       31.1913149883        4.1236280220
  C        45.2783042631       30.1717517056        3.4059479995
  C        44.9543663713       28.8214397146        3.6433646717
  C        44.0204875556       28.5237505944        4.6537589987
  C        43.3920830212       29.5405053150        5.3658689433
  C        45.5635606939       27.7240745004        2.8581065090
  C        45.5337477279       27.7173736921        1.4367979073
  C        44.8271743889       28.7074819903        0.6839146203
  C        35.0975609301       26.6256629856        0.7528036267
  C        35.0320788415       26.6102053294        3.5632491394
  C        18.1486209940        3.2467330851        5.7066635682
  C        17.4300824907        4.3436356232        4.9972744591
  C        16.4146946187        4.0524482610        4.0738859286
  C        15.7664514293        5.0831328056        3.3984792044
  C        16.1213201481        6.4283233117        3.6210924488
  C        17.1129258552        6.7116299438        4.5781305111
  C        17.7605258700        5.6826673670        5.2578985083
  C        15.4909140614        7.5241189225        2.8486758700
  C        15.4968633998        7.5076086577        1.4275363823
  C        16.1935425755        6.5058591707        0.6808218980
  H        10.6728431188       12.4659585314        3.9044611887
  H        11.6951242150       10.5512364319        2.6625759288
  H        15.3918724072       11.1683976972        4.7727407264
  H        14.3515150378       13.0712716061        6.0178076691
  H        13.3770067886       11.6315569727        1.2014711220
  H        50.3233886486       22.7477167597        3.9860682841
  H        49.3204295900       24.6224276102        2.6804097687
  H        45.6435790190       24.1621121875        4.8645997876
  H        46.6643917245       22.2910768948        6.1727128038
  H        47.6309140261       23.5762360985        1.2461360022
  H        14.8723301101        8.5881273747        4.6086148008
  H        50.2874927037       22.7028559010       12.0604971517
  H        49.2695927927       24.5757707055       13.3604281067
  H        45.6111170139       24.1098629997       11.1457900577
  H        46.6531626491       22.2545145065        9.8315572810
  H        47.6087056920       23.5522647342       14.7968695960
  H        40.6249192799       17.0900988642       11.4006324295
  H        48.6872982194       14.0948915715        7.8002288184
  H        10.6821602930       12.4671962193       12.0938297139
  H        11.6907152882       10.5255119082       13.2976037836
  H        15.3940409864       11.1591362861       11.2049377247
  H        14.3652449971       13.0872690356        9.9895218097
  H        13.3769906116       11.6227857206       14.7533018428
  H        47.9303510949       14.2190614683        9.7109722033
  H        47.7800140500       14.3730792457        6.4955303082
  H        49.0837600111       18.5520395974       10.8672449607
  H        10.4168610190       14.1343283329        7.9987639125
  H        24.4897333224        3.0444606431        3.9157884290
  H        25.6217507106        4.9113664247        2.6954774837
  H        23.2314309724        7.7619888656        4.8540939081
  H        22.1182081998        5.8856312270        6.0762655067
  H        23.8043401283        5.8076896179        1.2723050296
  H        36.3533087895       32.1849769504        3.9832789979
  H        35.2024840494       30.3667961034        2.7235449140
  H        37.4547511667       27.4325121142        4.9181809909
  H        38.5860731531       29.2638369432        6.1878839875
  H        36.9775590668       29.4482877680        1.3112687708
  H        25.7074580501        8.6456405698        4.6549889169
  H        36.4575321215       32.2417485381       12.1187974926
  H        35.3468141064       30.4292993563       13.4197569017
  H        37.5439873324       27.4867150133       11.1789191402
  H        38.6290035681       29.3108359396        9.8644769694
  H        37.0223360644       29.4701510596       14.8646685568
  H        46.1093746760       26.5878817110       11.3857227127
  H        44.6681938523       35.1161707144        7.8139483574
  H        24.4292276816        3.0422412983       12.0979124536
  H        25.5586232256        4.8813355323       13.3495626384
  H        23.1705801195        7.7704096259       11.2407513837
  H        22.0522040466        5.9191918023        9.9896389143
  H        23.7870779579        5.8024233264       14.8240848471
  H        44.9537196270       34.3904404475        9.6952596051
  H        44.9013774442       34.2067660423        6.4905533779
  H        40.6659474120       33.2089582331       10.8530775121
  H        23.1503505507        1.9581153748        8.0054819281
  H        25.9750720214       19.6444344450        3.6962099335
  H        23.7620012321       19.7443444379        2.5606348012
  H        22.4128790118       16.3860368842        4.8863979147
  H        24.6219844039       16.3118211830        6.0346511243
  H        23.7553935229       17.7131963883        1.2142051245
  H        35.2683332471       15.4605394600        4.1690532491
  H        37.3449860143       15.4284273094        2.7874908029
  H        38.7182477445       18.9785286639        4.7906072211
  H        36.6212133042       19.0119225607        6.1560161211
  H        37.2392648386       17.3960268113        1.2490007653
  H        20.4327581920       18.1121586380        4.6757392844
  H        35.1884453874       15.4039902051       12.0939979379
  H        37.3317320768       15.3609465964       13.3694136421
  H        38.6947504466       18.8053816512       11.1827363301
  H        36.5445620707       18.8337886637        9.9033276680
  H        37.2361143240       17.3633457869       14.7981176747
  H        35.1549502501       26.6901852441       11.4095502609
  H        28.5166252780       21.0979635855        7.9948390902
  H        25.7411474077       19.6386790208       12.1496996578
  H        23.5566033326       19.6964238467       13.3536156312
  H        22.2950215347       16.1770688075       11.2262791606
  H        24.4800749720       16.1421934264       10.0121021999
  H        23.7069983490       17.6567280153       14.7707504800
  H        28.9992020223       21.7160637231        9.7759062187
  H        29.0574383306       21.7906521050        6.5810939897
  H        32.0696087033       18.5908822444       10.9898308904
  H        27.4031100442       19.0811607351        8.0841611503
  H        14.8422938360       19.6433474019       12.1483034452
  H        16.9993981859       19.6891248559       13.3995444523
  H        18.2855344908       16.1642852603       11.2970914386
  H        16.1249147163       16.1352438856       10.0438787846
  H        16.9303693363       17.7146255422       14.8957119009
  H        46.0777591947       15.4326906615       12.0507076927
  H        43.9462276318       15.3783390534       13.3493814812
  H        42.5433492049       18.8114191168       11.1698772799
  H        44.6755813004       18.8411768421        9.8618570589
  H        44.0248227253       17.3503693311       14.7872390959
  H        20.2634829327       17.9045320356       11.4289464676
  H        46.0500259706       15.4135261593        4.0093329939
  H        43.9271119865       15.3842266141        2.6957636081
  H        42.5594497770       18.8512294706        4.8434935796
  H        44.6877453780       18.8656910288        6.1579903715
  H        44.0276939478       17.3592403446        1.2379100935
  H        46.2000503476       26.6828035905        4.6235387220
  H        52.7412399972       21.0627607036        8.1947741263
  H        14.8998818630       19.7102741808        3.9212716336
  H        17.1046836974       19.8207107831        2.7633794601
  H        18.3864888891       16.3013194775        4.8762535829
  H        16.1834698271       16.2148044709        6.0451806790
  H        16.9764569098       17.7663364539        1.3413809762
  H        52.3226188437       21.6730066130        6.2939033821
  H        52.0134406838       21.7020182332        9.4959145015
  H        49.0702898014       18.6089184972        5.2036330449
  H        13.2483271980       19.0164321236        7.9789478445
  H        29.9494554577       12.4639666462       12.2276134845
  H        28.8854720471       10.5301433344       13.4040750518
  H        25.2514495383       11.1984073894       11.2036877875
  H        26.3354568179       13.1162667808       10.0199083272
  H        27.1761866180       11.6789289136       14.7905743380
  H        31.0322801716       22.7064707582       12.0979771733
  H        32.0367890114       24.5870090109       13.3808143595
  H        35.6647745181       24.1972485977       11.0998731422
  H        34.6345166119       22.3290495169        9.7988960857
  H        33.7180543206       23.5475776565       14.7584123854
  H        25.7096510569        8.5956864072       11.4080880198
  H        30.9007898209       22.5948791491        3.7595111266
  H        31.9252363827       24.4894815064        2.5164124708
  H        35.4463965543       24.1967193693        4.9739786171
  H        34.3962327508       22.3183499723        6.2357659312
  H        33.6600689994       23.5341739252        1.1979211390
  H        40.6393951258       17.1891571375        4.6371681439
  H        32.5238208933       14.1563456480        8.2443456355
  H        29.8978607699       12.4934655629        4.0059200148
  H        28.8635933215       10.6031165587        2.7317216454
  H        25.1472316205       11.2688761234        4.7899398543
  H        26.1932336165       13.1575914585        6.0508674318
  H        27.1634122627       11.7009100952        1.2400052448
  H        33.2851607776       14.1437147302        6.4188546320
  H        33.4060322816       14.3595720174        9.6232728390
  H        32.1435216792       18.5949807351        5.1158715150
  H        30.2195864419       14.1919179723        8.0976480125
  H        16.1177010173        2.9636637389       12.1291019064
  H        14.9528779246        4.8209707236       13.3217920171
  H        17.3678543709        7.6859777297       11.2109080552
  H        18.5162169380        5.8181839312       10.0111525127
  H        16.7538108196        5.7396927588       14.7714693532
  H        44.8278665025       32.1403010436       11.9770371091
  H        45.9372302982       30.3415565571       13.3065601856
  H        43.6821653962       27.3781640935       11.1528927623
  H        42.5993904103       29.1899371676        9.8101850728
  H        44.2302320958       29.4365273137       14.7692656606
  H        14.8521184043        8.5468002906       11.3633542094
  H        44.9003352323       32.2339971840        3.9323518211
  H        46.0254334225       30.4130187221        2.6529424610
  H        43.7632911392       27.4840363275        4.8450888802
  H        42.6452252049       29.3176975485        6.1239639220
  H        44.2685710720       29.4702493973        1.2185752904
  H        34.9686477876       26.6279917804        4.6497441101
  H        36.6051677822       35.1337808298        8.1808166234
  H        16.1434140575        3.0128995698        3.9042854576
  H        14.9739734408        4.8563266198        2.6885489627
  H        17.3966327403        7.7470652325        4.7548898862
  H        18.5435461104        5.8930485344        5.9825245981
  H        16.7647444508        5.7554457320        1.2192662508
  H        36.2787297097       34.4821793710        6.2730203884
  H        36.3805573849       34.2091650780        9.4999001465
  H        40.5784585705       33.2016034641        5.1544316582
  H        17.4711680966        1.9466010551        7.9740542660
  H        28.8807691879       19.0546642535       12.4749607076
  H        32.5778208244       16.1992599625        3.9388850757
  H        32.2148430050       16.5444397322       12.4157162631
  H        28.3479838591       17.4255044185       14.8060196739
  H        30.6281788641       15.2160573514       14.3800729421
  H        31.4293396626       19.4157360522        1.4981323226
  H        30.4220972510       13.9958159840        2.1069994687
  H        27.8611735289       16.3548047071        2.0045634419
  H        30.6165744121       19.8095265795       13.8071901623
  H        18.8536776181        0.8690580031       12.3353035868
  H        40.5279731719       35.2290448106        3.9521038407
  H        42.3239580964       34.4187605912        3.5908615376
  H        22.0878253826        0.6923891436       12.3511315064
  H        11.5965673106       18.7135880908       12.3827577504
  H        52.2650885156       18.4313637627        3.6761703927
  H        49.2554589699       16.4771382776        3.5846665047
  H        10.1504679258       15.7981739449       12.2928677472
  H        50.8505642777       17.6920337207        3.9544076159
  H        10.0463313026       17.3946157405       12.0520185234
  H        20.2151080370        0.0023990963       12.0419565936
  H        39.1835362059       36.1243248397        3.6864327113
 Ni        29.5899671253       17.9622117805        2.0002502090
 Ni        29.8374905226       16.0224781976        0.6610806355
 Ni        29.8059186851       18.9158855845       -0.1654369347
 Ni        30.1019053770       17.3183919222       13.3239890074
  O        10.6501861232       14.3650611546        5.4859305678
  O        12.6134144899       14.6577966156        6.5838964733
  O        49.1483607170       16.8457806419        7.9899549106
  O        50.3506338008       20.9347730757        5.6476795013
  O        48.3488014918       20.5933390641        6.6658855139
  O        11.0522659566       17.0535851830        6.5008385413
  O        50.3212714141       20.8816426806       10.4067828734
  O        48.3468897697       20.5868624164        9.3272719855
  O        49.5440835818       18.2483399279       10.0682138077