     567
 i =       73, E =     -4728.3598529366
  C        11.8586786981       14.0534894690        5.7415864341
  C        12.4561636976       12.8905412087        5.0233566255
  C        11.7045910229       12.1718233623        4.0814331406
  C        12.2809919025       11.1096572918        3.3890529913
  C        13.6214765487       10.7396489731        3.6170241402
  C        14.3545005785       11.4429890083        4.5907782683
  C        13.7815894123       12.5079237477        5.2823223047
  C        14.2610669888        9.6490519135        2.8435986840
  C        14.2563932413        9.6569989308        1.4219007900
  C        13.7432748720       10.7591371194        0.6679819238
  C        49.1267892392       21.2332283902        5.8797505282
  C        48.5501090710       22.4011559696        5.1527056196
  C        49.3000904837       23.0683347921        4.1715620425
  C        48.7331720155       24.1074655423        3.4383509090
  C        47.4026805625       24.5092620816        3.6670695425
  C        46.6717829189       23.8605148323        4.6807201445
  C        47.2342168767       22.8156223744        5.4100924103
  C        46.7724308138       25.5869330101        2.8697652269
  C        46.7615420181       25.5573691347        1.4479930125
  C        47.2614824186       24.4422861328        0.7044788841
  C        14.8603977117        8.5706978592        0.7086376030
  C        14.8918123051        8.5970727456        3.5202449668
  C        49.1132101819       21.2034787331       10.1453454697
  C        48.5279294010       22.3648720687       10.8724036969
  C        49.2671411485       23.0255010468       11.8654075893
  C        48.6908466961       24.0600752929       12.5968505891
  C        47.3604618502       24.4569477756       12.3585853396
  C        46.6400927794       23.8121599040       11.3349525194
  C        47.2135935957       22.7762283288       10.6031742491
  C        46.7220388106       25.5318995432       13.1496344503
  C        46.7338109950       25.5282351656       14.5713325356
  C        47.2492142145       24.4290118131       15.3277160630
  C        40.6208181366       17.0813371601       15.3089919505
  C        40.6304656817       17.0989583729       12.4992372896
  C        11.8829753110       14.0865054277       10.2855102307
  C        12.4722349456       12.9106633383       10.9896349352
  C        11.7148544964       12.1777254941       11.9160773855
  C        12.2814337571       11.0952737468       12.5844901725
  C        13.6201170431       10.7212280993       12.3523411577
  C        14.3578977588       11.4364631125       11.3911330828
  C        13.7924890504       12.5176333914       10.7184419549
  C        14.2537955699        9.6245838692       13.1228108795
  C        14.2525456401        9.6446232842       14.5446491715
  C        13.7427214265       10.7535937522       15.2917272175
  C        22.5115039048        3.2440466642        5.7533584946
  C        23.2255820271        4.3494226574        5.0540102917
  C        24.2202237556        4.0697268835        4.1053467207
  C        24.8462254584        5.1097515713        3.4232082756
  C        24.4931186886        6.4512175115        3.6700504794
  C        23.5269996092        6.7224005663        4.6559291453
  C        22.8962155162        5.6842545126        5.3362683329
  C        25.0963958005        7.5588066753        2.8945377990
  C        25.0622923504        7.5551661172        1.4732594041
  C        24.3590409423        6.5564753215        0.7273988449
  C        38.3021392047       31.9300199294        5.8496614782
  C        37.5713452960       30.8408450073        5.1413195450
  C        36.6115540581       31.1449871380        4.1638716295
  C        35.9934304231       30.1247865693        3.4463795384
  C        36.3204816462       28.7755666413        3.6848243053
  C        37.2503382721       28.4789193659        4.6990411039
  C        37.8726004454       29.4978199122        5.4153882159
  C        35.7176795746       27.6841751539        2.8877111480
  C        35.7487425926       27.6993924395        1.4663941460
  C        36.4553808706       28.7013723161        0.7293295416
  C        25.6807014807        8.6277723240        0.7537126787
  C        25.6975402345        8.6310359096        3.5655490418
  C        38.3287970950       31.9617738965       10.1567306001
  C        37.6076644105       30.8886153786       10.8993250905
  C        36.6786772368       31.1974141641       11.9047823492
  C        36.0686132318       30.1791009659       12.6346911576
  C        36.3730166166       28.8262699947       12.3829031699
  C        37.2798332346       28.5274716199       11.3475096605
  C        37.8920703408       29.5422650449       10.6188665961
  C        35.7641189173       27.7274485602       13.1670809519
  C        35.7722877834       27.7216999075       14.5892082952
  C        36.4661615717       28.7124030350       15.3525925052
  C        46.1357683433       26.6208402568       15.2814808196
  C        46.0880266849       26.5802393163       12.4736090461
  C        22.4599515514        3.2562718121       10.2581045368
  C        23.1514409403        4.3663344671       10.9815998971
  C        24.1515615267        4.0829122925       11.9252764546
  C        24.7762933719        5.1148945654       12.6215744372
  C        24.4213283297        6.4601393358       12.3966909173
  C        23.4444436868        6.7367607117       11.4214315330
  C        22.8148832377        5.7050589822       10.7258630007
  C        25.0485007222        7.5602012745       13.1713700369
  C        25.0381199068        7.5554431598       14.5942569708
  C        24.3456481732        6.5576527519       15.3505067094
  C        26.6176882806       17.8602505256        5.7826010288
  C        25.3112690286       17.9067274863        5.0581937071
  C        25.0439671527       18.9119616374        4.1152272045
  C        23.8311091541       18.9302677038        3.4290413794
  C        22.8478638617       17.9482652706        3.6658332394
  C        23.1106624899       16.9657973692        4.6391137043
  C        24.3261568286       16.9409185697        5.3214648519
  C        21.5746890856       17.9343006706        2.9012114517
  C        21.5761478663       17.9152181116        1.4788451837
  C        22.7828684643       17.7934071972        0.7201770046
  C        34.4398399293       17.1914799759        5.9212620318
  C        35.7333033953       17.1412993195        5.1769723752
  C        35.9478747561       16.1580594947        4.1982801610
  C        37.1268913182       16.1448565742        3.4585592811
  C        38.1259160173       17.1129476472        3.6783396869
  C        37.9157030179       18.0765434283        4.6830830428
  C        36.7329491619       18.0955911276        5.4194258295
  C        39.3786443963       17.1180758149        2.8883144741
  C        39.3699778895       17.1139148333        1.4663556345
  C        38.1599905874       17.2204636427        0.7109190394
  C        20.3303484118       17.9333751580        0.7689131453
  C        20.3496166923       17.9358733159        3.5825263001
  C        34.4397251552       17.2365378360       10.1873326104
  C        35.7403930504       17.1363744609       10.9110075682
  C        35.9488493112       16.1486064464       11.8850752638
  C        37.1396725105       16.1146053046       12.6067560883
  C        38.1505661545       17.0678849256       12.3749598765
  C        37.9482094102       18.0291778637       11.3670222234
  C        36.7571301260       18.0676145409       10.6481192553
  C        39.4006442027       17.0813587043       13.1674280922
  C        39.3813197576       17.0954546500       14.5888740241
  C        38.1653381915       17.2102922275       15.3340558355
  C        35.1401069426       26.6433958639       15.2932651454
  C        35.1744938441       26.6563973465       12.4839336772
  C        26.5738587895       17.8259048522       10.3252337011
  C        25.2608404922       17.8682083040       11.0360628662
  C        24.9947825260       18.8762277586       11.9754619403
  C        23.7771233807       18.9014555005       12.6500882213
  C        22.7955973054       17.9195858150       12.4077247851
  C        23.0566793198       16.9356117276       11.4370143347
  C        24.2753120673       16.9075480684       10.7615194140
  C        21.5306957208       17.9035440148       13.1789090636
  C        21.5535656833       17.8975764266       14.6003739980
  C        22.7714127947       17.7844363912       15.3437626207
  C        14.0471224090       17.8288628191       10.2889454168
  C        15.3521342917       17.8860507311       11.0140984298
  C        15.6098021198       18.8899854757       11.9607184720
  C        16.8190531488       18.9109236363       12.6533761121
  C        17.8053319403       17.9306920054       12.4219079979
  C        17.5524641605       16.9509747521       11.4430905156
  C        16.3426818298       16.9255434355       10.7519384726
  C        19.0743092947       17.9134598701       13.1917222829
  C        19.0720369798       17.9123616682       14.6143520830
  C        17.8643607494       17.8152505964       15.3748272253
  C        46.8025080969       17.2161189841       10.1568046636
  C        45.5089597246       17.1456743390       10.8970735224
  C        45.3039122649       16.1614123415       11.8765321732
  C        44.1198839534       16.1332591671       12.6087544022
  C        43.1098240605       17.0891030397       12.3842855102
  C        43.3114136415       18.0521242294       11.3769309820
  C        44.4964538215       18.0842371838       10.6454829381
  C        41.8566603642       17.0922087549       13.1744651340
  C        41.8657429075       17.0959245961       14.5966751612
  C        43.0762748408       17.1978501972       15.3520102953
  C        20.3182063855       17.9236711280       15.3239096454
  C        20.2993687135       17.8916648766       12.5108182857
  C        46.7855407011       17.2328359853        5.8863418066
  C        45.4845293330       17.1301826192        5.1656216807
  C        45.2660495356       16.1307624032        4.2051800810
  C        44.0791825580       16.1043357323        3.4768473880
  C        43.0808582240       17.0746757153        3.6909737248
  C        43.2906911368       18.0455130297        4.6882220207
  C        44.4784101910       18.0778682786        5.4122018948
  C        41.8330628693       17.0928314583        2.8958622625
  C        41.8538580977       17.0950974866        1.4745101042
  C        43.0707961562       17.1943328570        0.7290113966
  C        46.1535046070       26.6372374997        0.7262401827
  C        46.1624641376       26.6560571798        3.5359076430
  C        14.0448479167       17.8314034009        5.7087055382
  C        15.3654522573       17.9053318402        5.0177159637
  C        15.6391340239       18.9218472898        4.0905043137
  C        16.8680715779       18.9592799737        3.4356866191
  C        17.8504767109       17.9792839189        3.6825217614
  C        17.5835189595       16.9914109653        4.6477471625
  C        16.3566466646       16.9535374056        5.3061084650
  C        19.1178764350       17.9549513707        2.9142187980
  C        19.0947526832       17.9327020557        1.4927568150
  C        17.8754733522       17.8242029491        0.7510493883
  C        28.8079732363       14.0943664537       10.3964726762
  C        28.1928073172       12.9227187398       11.0844969720
  C        28.9063308375       12.1913668851       12.0456167856
  C        28.3027312844       11.1181764289       12.6961691488
  C        26.9713462178       10.7528201777       12.4104693605
  C        26.2803999657       11.4646614049       11.4134949778
  C        26.8816162765       12.5377223171       10.7610663630
  C        26.2977830829        9.6749264843       13.1698336634
  C        26.2794078271        9.7041103119       14.5907626880
  C        26.7748398492       10.8204045613       15.3369029928
  C        32.1789978945       21.2371905786       10.1481754772
  C        32.7729386397       22.4036741383       10.8663773452
  C        32.0228329275       23.0863033050       11.8364036023
  C        32.5931736059       24.1262358374       12.5641911182
  C        33.9293493132       24.5119548485       12.3427491768
  C        34.6618489250       23.8487335799       11.3401790304
  C        34.0939581447       22.8032614367       10.6144302887
  C        34.5578629583       25.5876059863       13.1434417211
  C        34.5474963320       25.5601283070       14.5652398079
  C        34.0355918328       24.4465651162       15.3035288319
  C        25.6725341453        8.6244815032       15.3090120087
  C        25.6650927151        8.6220418407       12.4957212268
  C        32.1040186332       21.2244017449        5.8850219549
  C        32.6919081635       22.3795908278        5.1448179914
  C        31.9567311834       23.0351912530        4.1451422891
  C        32.5353019313       24.0657332481        3.4077944844
  C        33.8627148108       24.4698792679        3.6509711019
  C        34.5800576063       23.8279104717        4.6788484565
  C        34.0062980600       22.7925468878        5.4121923120
  C        34.5024509739       25.5503921118        2.8649996163
  C        34.5183006505       25.5413871496        1.4427833042
  C        34.0207739619       24.4379863973        0.6804280210
  C        40.6145288842       17.0860601968        0.7540668283
  C        40.6039233071       17.1238400211        3.5643777560
  C        28.7428423469       14.0675756129        5.8191153429
  C        28.1319992501       12.9208797576        5.0827614033
  C        28.8598415944       12.2368575254        4.0973543545
  C        28.2768006161       11.1817388338        3.3995869279
  C        26.9497859141       10.7849976062        3.6613477037
  C        26.2396725456       11.4568744432        4.6738919949
  C        26.8211033754       12.5121908976        5.3737564875
  C        26.3041176150        9.6970436023        2.8885956534
  C        26.2844407878        9.7151297798        1.4669204503
  C        26.7754439734       10.8270130242        0.7129282019
  C        18.1354507406        3.1809150990       10.3172074755
  C        17.4061598345        4.2782157647       11.0158685461
  C        16.3902812463        3.9998788224       11.9432018145
  C        15.7425659659        5.0398770012       12.6066988360
  C        16.0946304378        6.3835640180       12.3671311673
  C        17.0842040689        6.6530740229       11.4035747377
  C        17.7332818957        5.6157143076       10.7385258332
  C        15.4703096876        7.4912916721       13.1301512816
  C        15.4855992927        7.4906590073       14.5518613966
  C        16.1871761958        6.4970590598       15.3050303907
  C        42.9458860126       31.8595442586       10.0728796952
  C        43.6463156827       30.7718705690       10.8168525466
  C        44.5919520151       31.0932077257       11.8028116510
  C        45.1976979249       30.0876689840       12.5504638962
  C        44.8711678558       28.7346201199       12.3357207606
  C        43.9451338470       28.4202655491       11.3227163613
  C        43.3362731937       29.4253993340       10.5746939066
  C        45.4887886637       27.6553259353       13.1388939294
  C        45.4930201101       27.6809535902       14.5605816386
  C        44.8059202156       28.6889837634       15.3072054523
  C        14.8566303721        8.5631630246       15.2642062685
  C        14.8749663347        8.5630030020       12.4515454654
  C        42.9464540060       31.9615639026        5.8090202823
  C        43.6916532556       30.8854202663        5.0954413043
  C        44.6564515333       31.1913255982        4.1233525499
  C        45.2779991847       30.1717415196        3.4056264432
  C        44.9540140461       28.8214394619        3.6430675495
  C        44.0202482479       28.5237594242        4.6535782732
  C        43.3919771874       29.5405387229        5.3657433070
  C        45.5631399401       27.7240386102        2.8578474393
  C        45.5334920798       27.7173654340        1.4365421230
  C        44.8271741742       28.7076080536        0.6835972828
  C        35.1267201905       26.6328427058        0.7383897678
  C        35.1134091366       26.6087516905        3.5482691998
  C        18.1485893941        3.2469662515        5.7066038995
  C        17.4300385495        4.3438622313        4.9972569297
  C        16.4146321365        4.0526208696        4.0739103846
  C        15.7663324795        5.0832720893        3.3985250059
  C        16.1212040451        6.4284674049        3.6210976193
  C        17.1128585985        6.7118301162        4.5780633611
  C        17.7605196124        5.6828927852        5.2578162197
  C        15.4907184687        7.5241901788        2.8486592487
  C        15.4966145042        7.5075939232        1.4275260225
  C        16.1933850243        6.5058861985        0.6808432827
  H        10.6725297524       12.4660819719        3.9042344411
  H        11.6947786878       10.5513049384        2.6623541125
  H        15.3914474705       11.1682038253        4.7727182964
  H        14.3509679293       13.0709512484        6.0179721628
  H        13.3762565742       11.6312675148        1.2012754686
  H        50.3227558268       22.7482221942        3.9867241785
  H        49.3196243199       24.6226507333        2.6806914088
  H        45.6423448539       24.1614194884        4.8639982510
  H        46.6632132733       22.2905463101        6.1723028066
  H        47.6299555725       23.5758614692        1.2461374465
  H        14.8721398077        8.5882636672        4.6085524062
  H        50.2871583674       22.7025974990       12.0603675899
  H        49.2692242155       24.5754639930       13.3604050217
  H        45.6107248148       24.1094776949       11.1458303000
  H        46.6527371317       22.2541673206        9.8315696100
  H        47.6079889532       23.5518869651       14.7968363893
  H        40.6336568949       17.0658942173       11.4113862542
  H        48.6870983125       14.0949846513        7.8000315514
  H        10.6814669859       12.4669636559       12.0936915666
  H        11.6897205009       10.5250462101       13.2973823803
  H        15.3931955597       11.1582890750       11.2048821861
  H        14.3647134095       13.0867268371        9.9896052927
  H        13.3759014456       11.6222152619       14.7531025773
  H        47.9301470577       14.2184557619        9.7107842274
  H        47.7799339207       14.3735330290        6.4953324990
  H        49.0828835142       18.5520150963       10.8671198018
  H        10.4160618430       14.1343564574        7.9987720239
  H        24.4800888532        3.0311715715        3.9128976385
  H        25.6175118654        4.8931114636        2.6872724769
  H        23.2475094298        7.7553688740        4.8525243296
  H        22.1277935827        5.8837940363        6.0791146004
  H        23.7996456746        5.7985097721        1.2679526928
  H        36.3751039029       32.1882774522        3.9685724720
  H        35.2488587485       30.3636887497        2.6901995866
  H        37.5100004640       27.4397190579        4.8900277481
  H        38.6163495957       29.2770188983        6.1773200151
  H        37.0208411873       29.4507595893        1.2755021976
  H        25.7394667351        8.6095359197        4.6530289286
  H        36.4554645092       32.2416404017       12.1116415933
  H        35.3427065899       30.4243525413       13.4067867255
  H        37.5269395448       27.4872206296       11.1461238628
  H        38.6145445711       29.3161975679        9.8384300850
  H        37.0409830408       29.4697936719       14.8274611265
  H        46.1093514236       26.5876462366       11.3855772631
  H        44.6682499577       35.1161873444        7.8139089699
  H        24.4302003045        3.0452814516       12.0947181467
  H        25.5554440245        4.8879129518       13.3461292324
  H        23.1587049315        7.7706527759       11.2385872669
  H        22.0447995569        5.9159995645        9.9874492019
  H        23.7754472008        5.8011327089       14.8192087253
  H        44.9537467751       34.3904175032        9.6952815573
  H        44.9016061096       34.2067045839        6.4906969068
  H        40.6657550652       33.2089111080       10.8530509284
  H        23.1503359038        1.9580033817        8.0054725346
  H        25.7961320612       19.6769491735        3.9363232607
  H        23.6293423900       19.7154012270        2.7034389873
  H        22.3634415998       16.1983010883        4.8305086011
  H        24.5402926178       16.1681287815        6.0560759972
  H        23.7233687511       17.6752529817        1.2506717249
  H        35.1749006586       15.4130184595        4.0264685957
  H        37.2906751047       15.3750106239        2.7076178282
  H        38.6788215232       18.8323153635        4.8574797267
  H        36.5545300245       18.8541660360        6.1781403236
  H        37.2213743605       17.3426569284        1.2438606212
  H        20.3552842289       17.9737515431        4.6704693150
  H        35.1601792911       15.4241254319       12.0744712490
  H        37.2992138668       15.3454174220       13.3592707614
  H        38.7217120670       18.7717276740       11.1823073749
  H        36.5810058447       18.8278834767        9.8910239435
  H        37.2306173137       17.3245279235       14.7926995468
  H        35.1484805518       26.6814012445       11.3961715452
  H        28.5032853568       21.0843112062        7.8925303375
  H        25.7530550435       19.6353434256       12.1547702578
  H        23.5699706234       19.6879938914       13.3725704478
  H        22.3072989957       16.1704932983       11.2445670796
  H        24.4923402098       16.1369162579       10.0256426122
  H        23.7033871240       17.6593303350       14.8007756442
  H        29.0090580313       21.7219253474        9.7412419073
  H        29.1817372318       21.7265885392        6.5627421649
  H        32.0676779276       18.5439762391       11.0000450655
  H        27.4093779998       19.0776642272        8.0838088870
  H        14.8518872568       19.6496679061       12.1385187689
  H        17.0145863109       19.6959318259       13.3807544516
  H        18.3030198614       16.1859449184       11.2549965133
  H        16.1364000891       16.1556994318       10.0121433849
  H        16.9221481734       17.7002384022       14.8469161350
  H        46.0899441065       15.4321644964       12.0579741706
  H        43.9631139677       15.3627708461       13.3604958329
  H        42.5400108951       18.7983385403       11.1981579704
  H        44.6674790215       18.8427081259        9.8850729512
  H        44.0163742142       17.3110660273       14.8197336182
  H        20.2945230192       17.9192833642       11.4226084613
  H        46.0415948928       15.3882188798        4.0316798907
  H        43.9124214030       15.3275792089        2.7337171897
  H        42.5256093022       18.7997726843        4.8600800717
  H        44.6606966597       18.8457474020        6.1600082582
  H        44.0067933507       17.3037470557        1.2691440274
  H        46.1992107469       26.6825944181        4.6233631128
  H        52.7411301858       21.0626472987        8.1946738024
  H        14.8789997914       19.6762631517        3.8999324648
  H        17.0798944205       19.7505665954        2.7197912498
  H        18.3335987247       16.2284152539        4.8455434248
  H        16.1348457085       16.1782562096        6.0354382090
  H        16.9415444076       17.7161216626        1.2943643803
  H        52.3223724752       21.6732612565        6.2943542044
  H        52.0133132834       21.7021102396        9.4957389216
  H        49.0675614177       18.6080267519        5.2041371945
  H        13.2473910062       19.0164184831        7.9773720762
  H        29.9315610763       12.4786328029       12.2680854773
  H        28.8576093034       10.5493846701       13.4391327669
  H        25.2519889936       11.1923861092       11.1850670279
  H        26.3456276918       13.1084269003       10.0067272626
  H        27.1300405617       11.6926126714       14.7966203509
  H        30.9962640611       22.7762448812       12.0155252158
  H        32.0064516104       24.6540355241       13.3128670721
  H        35.6959300997       24.1374320873       11.1633095626
  H        34.6653347238       22.2658580856        9.8610699092
  H        33.6784188543       23.5782321088       14.7572941642
  H        25.6996402619        8.6004900992       11.4078779673
  H        30.9360868853       22.7136941011        3.9505913108
  H        31.9585912365       24.5747657914        2.6385913369
  H        35.6075605396       24.1288867989        4.8725503198
  H        34.5658747473       22.2746660600        6.1877036690
  H        33.6520642204       23.5628916799        1.2079782450
  H        40.5999904521       17.0977909432        4.6524126232
  H        32.5031672704       14.1449333767        8.2583356041
  H        29.8826696448       12.5472893467        3.8962087252
  H        28.8489571119       10.6469643746        2.6445584921
  H        25.2129496973       11.1635275282        4.8829709966
  H        26.2691109890       13.0470971118        6.1429204676
  H        27.1297019672       11.7043111610        1.2463618363
  H        33.3093040414       14.2334348646        6.4676523446
  H        33.4068546877       14.4122848634        9.5966472023
  H        32.1538162660       18.5042660634        5.1859107911
  H        30.1886595645       14.1585634635        8.0821673321
  H        16.1181185184        2.9633773492       12.1294841235
  H        14.9529766525        4.8205169264       13.3222098145
  H        17.3667781639        7.6859328317       11.2105885096
  H        18.5154626994        5.8183026231       10.0108120042
  H        16.7536897586        5.7396951386       14.7715182897
  H        44.8283402791       32.1402904390       11.9768598973
  H        45.9376869357       30.3414265632       13.3062835349
  H        43.6822786404       27.3782159390       11.1527480838
  H        42.5995136145       29.1900679654        9.8101651905
  H        44.2305734181       29.4367463963       14.7688923592
  H        14.8511827138        8.5461656387       11.3633277746
  H        44.9001330276       32.2340023413        3.9320497597
  H        46.0250753743       30.4129603784        2.6525498036
  H        43.7630729677       27.4840430150        4.8449471078
  H        42.6452489805       29.3177553109        6.1239662678
  H        44.2686505473       29.4704755349        1.2182011918
  H        35.0712724479       26.6213695361        4.6357478263
  H        36.6051209674       35.1340126248        8.1806525808
  H        16.1433867023        3.0130553072        3.9043686163
  H        14.9738331472        4.8564591044        2.6886237348
  H        17.3965801245        7.7472736397        4.7547527182
  H        18.5436120355        5.8932873112        5.9823641813
  H        16.7647777299        5.7556385104        1.2193170331
  H        36.2786004150       34.4824458176        6.2732653958
  H        36.3808315622       34.2091683331        9.4997430007
  H        40.5800108347       33.2023527943        5.1537552942
  H        17.4706860004        1.9471978883        7.9741637255
  H        29.1440496501       19.3243832987       12.5662823410
  H        28.8084357521       18.8730079010        3.7910861274
  H        31.9754694149       15.8021448230        3.5657728837
  H        31.3931560625       15.6331605574       12.5533000802
  H        27.7776671510       17.7125484428       14.0212669209
  H        29.2788339565       15.3467565368       14.4104071196
  H        32.5175203279       17.4509931683        1.1768763806
  H        18.8536481244        0.8689193234       12.3353410621
  H        40.5279010816       35.2289650968        3.9520706146
  H        42.3238995494       34.4187278554        3.5905155748
  H        22.0877139086        0.6920096442       12.3515343197
  H        11.5972072247       18.7128396426       12.3823905165
  H        52.2647627014       18.4310204151        3.6773564661
  H        49.2546445749       16.4769557170        3.5847481813
  H        10.1505602432       15.7981580962       12.2925840391
  H        50.8498477641       17.6924994517        3.9542175311
  H        10.0462738502       17.3945212088       12.0519671896
  H        20.2149510072        0.0021577416       12.0419394865
  H        39.1836352842       36.1243570276        3.6863328678
 Ni        30.6035492391       17.5827901661        2.8299440534
 Ni        30.8617045162       16.3535957814       -0.0829754352
 Ni        29.1667158044       17.8153857861        0.0871156357
 Ni        29.9748351388       17.2989717939       13.1566951834
  O        10.6499024552       14.3651480957        5.4858501613
  O        12.6131549722       14.6575419333        6.5839033514
  O        49.1478018832       16.8459561828        7.9898128786
  O        50.3502564369       20.9357612986        5.6481164937
  O        48.3485457755       20.5932574516        6.6659674952
  O        11.0515623153       17.0538976315        6.5007016935
  O        50.3210326647       20.8816194235       10.4068216982
  O        48.3467547326       20.5867077469        9.3271306969
  O        49.5436291716       18.2484040565       10.0682930312
  O        12.3589728233       18.6245763348        7.9997792969
  O        48.6932086364       14.1486212491        6.7512979290