     567
 i =      100, E =     -4728.3513288235
  C        11.8586571865       14.0535077205        5.7415748462
  C        12.4561472036       12.8905530273        5.0233095031
  C        11.7045541811       12.1718187083        4.0814190811
  C        12.2809319471       11.1096159940        3.3890681791
  C        13.6214186336       10.7396069128        3.6170096271
  C        14.3544558223       11.4429564854        4.5907439240
  C        13.7815693979       12.5079268260        5.2822594163
  C        14.2609738775        9.6489653219        2.8436054238
  C        14.2563430159        9.6569175146        1.4219040700
  C        13.7432379812       10.7590614762        0.6679823156
  C        49.1267544483       21.2332040103        5.8797089216
  C        48.5500412651       22.4011152057        5.1526343854
  C        49.3000698793       23.0683864839        4.1715897482
  C        48.7331564246       24.1075296618        3.4383904275
  C        47.4026365986       24.5092558059        3.6670351467
  C        46.6716933866       23.8604271327        4.6805926611
  C        47.2341170035       22.8155174543        5.4099545283
  C        46.7724277882       25.5869662623        2.8697515964
  C        46.7615067720       25.5573933096        1.4479861404
  C        47.2614444164       24.4423143318        0.7044719734
  C        14.8603101822        8.5705888097        0.7086478710
  C        14.8917153081        8.5969903800        3.5202630260
  C        49.1131801450       21.2034662093       10.1453595797
  C        48.5278455476       22.3648256935       10.8724566294
  C        49.2670892448       23.0255669893       11.8653566071
  C        48.6907575241       24.0601216618       12.5968015443
  C        47.3603401386       24.4569135068       12.3585766198
  C        46.6399381020       23.8120027210       11.3350424553
  C        47.2134761793       22.7760888186       10.6032602105
  C        46.7218952116       25.5318617705       13.1496296985
  C        46.7337132239       25.5282372948       14.5713342938
  C        47.2491725594       24.4290302685       15.3277098962
  C        40.6205853271       17.0823575546       15.3098257163
  C        40.6298084570       17.1042577876       12.5000081427
  C        11.8829516093       14.0864807533       10.2854955138
  C        12.4722365915       12.9106305149       10.9896420606
  C        11.7148304947       12.1776514421       11.9160249204
  C        12.2814161169       11.0951947487       12.5844361636
  C        13.6201356573       10.7212233352       12.3523708088
  C        14.3579416973       11.4365068662       11.3912163350
  C        13.7925271417       12.5176810945       10.7185241718
  C        14.2537773719        9.6245187410       13.1228111263
  C        14.2525415083        9.6445515721       14.5446528997
  C        13.7427116374       10.7535238034       15.2917263133
  C        22.5123227605        3.2438537798        5.7537468895
  C        23.2289029245        4.3482112782        5.0552136083
  C        24.2245663212        4.0662508591        4.1082372254
  C        24.8536543593        5.1046526208        3.4265251219
  C        24.5027274602        6.4469270847        3.6720378790
  C        23.5354822611        6.7203895708        4.6562250548
  C        22.9016325760        5.6837798379        5.3362354432
  C        25.1089349556        7.5527885797        2.8961802312
  C        25.0753179782        7.5482405216        1.4748701804
  C        24.3700773758        6.5504566872        0.7296404143
  C        38.2979729451       31.9278064837        5.8519429359
  C        37.5563981534       30.8393397457        5.1507294394
  C        36.5925117986       31.1466424128        4.1778678125
  C        35.9620132768       30.1289542407        3.4671248926
  C        36.2798365270       28.7773769392        3.7057134406
  C        37.2128665354       28.4776130224        4.7164294675
  C        37.8474885463       29.4942755874        5.4265723343
  C        35.6698205175       27.6892714718        2.9065207603
  C        35.7120328906       27.7031290447        1.4848112634
  C        36.4267384274       28.7027588464        0.7520122188
  C        25.6951249803        8.6196499921        0.7546340627
  C        25.7110256544        8.6248927263        3.5666023333
  C        38.3304262243       31.9603165582       10.1605076018
  C        37.6145132758       30.8869122392       10.9100787942
  C        36.6840134135       31.1958055809       11.9144184031
  C        36.0752488151       30.1784102638       12.6474348554
  C        36.3816339107       28.8247609631       12.4010427841
  C        37.2928372779       28.5258574589       11.3691734120
  C        37.9034692432       29.5397737735       10.6372238363
  C        35.7673624399       27.7260552152       13.1832874955
  C        35.7617146447       27.7221291260       14.6060571485
  C        36.4489155708       28.7129393573       15.3753740233
  C        46.1357030836       26.6208621378       15.2814868038
  C        46.0878300566       26.5801667612       12.4735892432
  C        22.4599543544        3.2559911468       10.2580942592
  C        23.1517051051        4.3654175071       10.9821324290
  C        24.1521072419        4.0807287310       11.9251264948
  C        24.7776336302        5.1117727935       12.6219672429
  C        24.4230895212        6.4573360035       12.3983667367
  C        23.4457322632        6.7352549643       11.4239355264
  C        22.8154598254        5.7044412403       10.7277174838
  C        25.0522694166        7.5562634155       13.1727885183
  C        25.0463841744        7.5496869482       14.5957024661
  C        24.3545179350        6.5521128759       15.3527920926
  C        26.6127080283       17.8573976793        5.7835758911
  C        25.3070406300       17.9061632494        5.0600922939
  C        25.0405221069       18.9119520613        4.1174010737
  C        23.8284624712       18.9297606294        3.4299517723
  C        22.8455434204       17.9471858337        3.6655773168
  C        23.1073452575       16.9647237014        4.6392159257
  C        24.3220417403       16.9399350393        5.3226265716
  C        21.5731870074       17.9327076964        2.8999536828
  C        21.5753209232       17.9143539148        1.4775554676
  C        22.7822755027       17.7941092934        0.7188985134
  C        34.4396725461       17.1925196616        5.9217684027
  C        35.7334581284       17.1427215953        5.1780776862
  C        35.9480304478       16.1585672206        4.2003202324
  C        37.1270340661       16.1445352483        3.4606449057
  C        38.1260462350       17.1127803562        3.6795554616
  C        37.9159421066       18.0772581519        4.6834066162
  C        36.7331550962       18.0970082927        5.4198132491
  C        39.3787232092       17.1169982695        2.8893961666
  C        39.3699647349       17.1134614055        1.4674350910
  C        38.1598864930       17.2212599438        0.7122615442
  C        20.3296166467       17.9318725567        0.7674584506
  C        20.3480616374       17.9333375408        3.5811031308
  C        34.4392140112       17.2373460457       10.1858920192
  C        35.7395045396       17.1405729577       10.9117264314
  C        35.9504623567       16.1508023647       11.8831501701
  C        37.1410327855       16.1179903110       12.6053235748
  C        38.1496007238       17.0743894960       12.3764239261
  C        37.9447059083       18.0383692582       11.3716688859
  C        36.7536369873       18.0756020445       10.6524145879
  C        39.4001208677       17.0868955904       13.1684345604
  C        39.3810134453       17.0986952804       14.5898898244
  C        38.1650740598       17.2129024733       15.3353487462
  C        35.1217296540       26.6454889518       15.3063054602
  C        35.1830442742       26.6536379598       12.4965320458
  C        26.5745005053       17.8268115534       10.3257240630
  C        25.2601368590       17.8726556042       11.0336458506
  C        24.9939767503       18.8810928648       11.9723304889
  C        23.7763669390       18.9066067748       12.6469959246
  C        22.7950275412       17.9244051831       12.4054387072
  C        23.0555398136       16.9407136466       11.4342899301
  C        24.2740915740       16.9125923349       10.7587015054
  C        21.5305564836       17.9070635050       13.1774169350
  C        21.5532570858       17.8992955920       14.5989456839
  C        22.7711278830       17.7865813048       15.3423872378
  C        14.0470572401       17.8290290643       10.2886596978
  C        15.3521171058       17.8865656951       11.0134065424
  C        15.6092851367       18.8901621310       11.9604918467
  C        16.8185886111       18.9112925072       12.6529642519
  C        17.8052574527       17.9317018854       12.4206326273
  C        17.5529428174       16.9524595486       11.4412421607
  C        16.3430504830       16.9267193216       10.7503822572
  C        19.0741631994       17.9146375588       13.1903270424
  C        19.0716804733       17.9116636885       14.6128696346
  C        17.8639520687       17.8125080988       15.3730052559
  C        46.8023389809       17.2162529223       10.1569238966
  C        45.5087077279       17.1462671572       10.8972092403
  C        45.3027400730       16.1617061062       11.8761883073
  C        44.1186584905       16.1341637406       12.6084065797
  C        43.1093143494       17.0909999555       12.3846305299
  C        43.3118223534       18.0543120034       11.3776996920
  C        44.4968482398       18.0857233663       10.6461617015
  C        41.8561981977       17.0948528971       13.1750482110
  C        41.8654522925       17.0965948177       14.5973091819
  C        43.0761671482       17.1962814990       15.3527070462
  C        20.3177741828       17.9233886578       15.3224583426
  C        20.2991873020       17.8949189499       12.5094368005
  C        46.7855191186       17.2326015339        5.8865594946
  C        45.4844475829       17.1292435208        5.1662296192
  C        45.2661771624       16.1292023248        4.2063759676
  C        44.0792968027       16.1020649178        3.4781278145
  C        43.0808005533       17.0723016080        3.6917786226
  C        43.2903915541       18.0436823119        4.6885498431
  C        44.4781167150       18.0767772700        5.4124453008
  C        41.8330877113       17.0902412837        2.8966235544
  C        41.8538403156       17.0928184582        1.4752863590
  C        43.0707956521       17.1914050199        0.7297050756
  C        46.1534879954       26.6372805440        0.7262479186
  C        46.1624249427       26.6560571327        3.5358930497
  C        14.0446275321       17.8310734365        5.7085496716
  C        15.3648557852       17.9041485586        5.0169265535
  C        15.6383045196       18.9199090376        4.0888415570
  C        16.8669280834       18.9565476990        3.4334673043
  C        17.8491687542       17.9765104976        3.6806878000
  C        17.5823934399       16.9892971882        4.6466098962
  C        16.3558209950       16.9521891439        5.3055096177
  C        19.1165532565       17.9520323339        2.9125455137
  C        19.0938625294       17.9299019989        1.4911035516
  C        17.8747782675       17.8205686679        0.7492381409
  C        28.8080893113       14.0926197423       10.3962798736
  C        28.1922909901       12.9208599147       11.0842348921
  C        28.9110782733       12.1816749313       12.0353913235
  C        28.3089104174       11.1078296215       12.6861526728
  C        26.9738136924       10.7491247138       12.4099413497
  C        26.2771499240       11.4686047868       11.4225708460
  C        26.8769362061       12.5427509268       10.7703285706
  C        26.3029027633        9.6699451376       13.1699508183
  C        26.2908730437        9.6964094465       14.5909514362
  C        26.7920420635       10.8103194242       15.3367387488
  C        32.1801064002       21.2368055553       10.1473337576
  C        32.7768662770       22.4003760978       10.8697057915
  C        32.0250907418       23.0868858242       11.8358484727
  C        32.5950130275       24.1268255820       12.5642443582
  C        33.9332490187       24.5096216924       12.3486271446
  C        34.6680869782       23.8417908507       11.3506714417
  C        34.1002348889       22.7964658310       10.6238780966
  C        34.5592403281       25.5858955875       13.1518482001
  C        34.5361496864       25.5611046009       14.5738951555
  C        34.0179706458       24.4486097480       15.3094651150
  C        25.6843181998        8.6170370990       15.3098745442
  C        25.6667717446        8.6189284332       12.4964813362
  C        32.0778482785       21.1960919618        5.8746969858
  C        32.6440693969       22.3620111405        5.1336311599
  C        31.9110140987       23.0074935103        4.1258720730
  C        32.4825610156       24.0495792466        3.3972861124
  C        33.8009695022       24.4755766113        3.6552814415
  C        34.5139791387       23.8441856278        4.6929889944
  C        33.9478768745       22.7994305796        5.4177816404
  C        34.4430007339       25.5600396043        2.8747201503
  C        34.4752389384       25.5483912611        1.4522891762
  C        33.9877597488       24.4430226590        0.6861220392
  C        40.6144284510       17.0852971129        0.7549487552
  C        40.6040439145       17.1217669069        3.5652602335
  C        28.7472014349       14.0696365609        5.8144907869
  C        28.1398925656       12.9205762854        5.0787868303
  C        28.8711632490       12.2333830946        4.0981577194
  C        28.2908943143       11.1754556431        3.4023100709
  C        26.9632189468       10.7790896608        3.6610982799
  C        26.2496168653       11.4540131893        4.6691060732
  C        26.8283760551       12.5119391374        5.3671286419
  C        26.3194299655        9.6894871712        2.8890366046
  C        26.3010696609        9.7062136791        1.4672826284
  C        26.7950174753       10.8164347409        0.7127577749
  C        18.1354132009        3.1808199204       10.3171554247
  C        17.4061492326        4.2781100954       11.0158486140
  C        16.3903130581        3.9997807730       11.9432353814
  C        15.7425745505        5.0397761330       12.6067149332
  C        16.0946037029        6.3834768149       12.3671298109
  C        17.0840997729        6.6529818731       11.4034842572
  C        17.7331986883        5.6156189898       10.7384576785
  C        15.4702553780        7.4911964964       13.1301512538
  C        15.4855514916        7.4905604444       14.5518658523
  C        16.1870865391        6.4969422195       15.3050503147
  C        42.9457920043       31.8595002733       10.0728308413
  C        43.6461416350       30.7718038771       10.8168067603
  C        44.5918433920       31.0931374650       11.8027073792
  C        45.1975603742       30.0876059365       12.5503848428
  C        44.8709738692       28.7345568282       12.3356933186
  C        43.9449567717       28.4201955372       11.3226652081
  C        43.3361317574       29.4253293332       10.5746078406
  C        45.4886415727       27.6552889667       13.1388774769
  C        45.4929297855       27.6809559827       14.5605728673
  C        44.8058895466       28.6890232720       15.3072095067
  C        14.8565676841        8.5630570267       15.2642126154
  C        14.8749641458        8.5629448355       12.4515432326
  C        42.9463915715       31.9615556263        5.8089686341
  C        43.6916363605       30.8854181125        5.0954797666
  C        44.6564419008       31.1913338725        4.1233904377
  C        45.2780005587       30.1717621750        3.4056679274
  C        44.9540432880       28.8214533286        3.6431042349
  C        44.0203100179       28.5237650796        4.6536396192
  C        43.3920098144       29.5405231154        5.3658093837
  C        45.5631479108       27.7240713058        2.8578535309
  C        45.5335021892       27.7174222727        1.4365515340
  C        44.8271948793       28.7076658791        0.6836024768
  C        35.0934179955       26.6375310180        0.7518863366
  C        35.0523439332       26.6178857104        3.5622480493
  C        18.1485637061        3.2468907200        5.7066341373
  C        17.4299856747        4.3437704939        4.9973033964
  C        16.4146376206        4.0525102395        4.0738910291
  C        15.7663205097        5.0831541955        3.3985113595
  C        16.1210912707        6.4283731624        3.6211290641
  C        17.1126194532        6.7117380667        4.5782288025
  C        17.7603063539        5.6828198903        5.2579877344
  C        15.4905916165        7.5240837239        2.8486815678
  C        15.4965244803        7.5074872911        1.4275452220
  C        16.1932840365        6.5057708275        0.6808641626
  H        10.6724891809       12.4660801187        3.9042425428
  H        11.6947016126       10.5512742850        2.6623747038
  H        15.3914095182       11.1681859807        4.7726612813
  H        14.3509562115       13.0709615518        6.0178969691
  H        13.3762292337       11.6311961918        1.2012782025
  H        50.3227610077       22.7483151754        3.9868160330
  H        49.3196404626       24.6227593042        2.6807893966
  H        45.6422218231       24.1612484772        4.8637986028
  H        46.6630807611       22.2903577137        6.1720879028
  H        47.6299400420       23.5759052298        1.2461322946
  H        14.8720212473        8.5881907111        4.6085698254
  H        50.2871338614       22.7027245054       12.0602742407
  H        49.2691451139       24.5755854576       13.3603011464
  H        45.6105300675       24.1092347511       11.1459795936
  H        46.6525982601       22.2539415282        9.8317271624
  H        47.6079122223       23.5518898311       14.7968223465
  H        40.6326366653       17.0728517816       11.4120985474
  H        48.6870950900       14.0949910816        7.8000155443
  H        10.6814299034       12.4668615747       12.0936135021
  H        11.6896956743       10.5249523803       13.2973127974
  H        15.3932790362       11.1584231104       11.2050465237
  H        14.3647777264       13.0868493009        9.9897667415
  H        13.3759149543       11.6221516951       14.7530928891
  H        47.9301211426       14.2185219267        9.7107954677
  H        47.7799570449       14.3736560948        6.4953494365
  H        49.0827593847       18.5519549021       10.8671172820
  H        10.4160280260       14.1343719246        7.9988102286
  H        24.4827543707        3.0271122536        3.9167266043
  H        25.6256480255        4.8860919039        2.6918967776
  H        23.2575334833        7.7539710981        4.8518131033
  H        22.1324049819        5.8852321789        6.0777540639
  H        23.8103700666        5.7931021387        1.2707213435
  H        36.3623959563       32.1908980739        3.9801164276
  H        35.2157107440       30.3723708199        2.7140426352
  H        37.4663876751       27.4372324512        4.9094379990
  H        38.5934925987       29.2688674706        6.1850664009
  H        36.9886919534       29.4520996715        1.3018079666
  H        25.7515680642        8.6047413268        4.6541684075
  H        36.4570295360       32.2399776885       12.1175454847
  H        35.3471322901       30.4256037963       13.4168489035
  H        37.5435496290       27.4857574883       11.1713522722
  H        38.6275827353       29.3118054786        9.8587928019
  H        37.0288433906       29.4697186357       14.8548599048
  H        46.1091158166       26.5875289711       11.3855504275
  H        44.6681995848       35.1161525246        7.8139875684
  H        24.4303363154        3.0428195222       12.0934805154
  H        25.5572006800        4.8838652134       13.3457679210
  H        23.1602943256        7.7694132938       11.2421444892
  H        22.0450682968        5.9162807834        9.9898763508
  H        23.7823371395        5.7965793796       14.8222280016
  H        44.9536699974       34.3903747291        9.6952312163
  H        44.9016772001       34.2067135559        6.4907390215
  H        40.6660481347       33.2088826055       10.8530967803
  H        23.1503329425        1.9577729662        8.0056419084
  H        25.7924927369       19.6774043132        3.9394604408
  H        23.6270461299       19.7148403197        2.7042108566
  H        22.3600395304       16.1970819276        4.8296500021
  H        24.5359240596       16.1669509573        6.0571116893
  H        23.7228949584       17.6764949116        1.2493604625
  H        35.1745140988       15.4138281617        4.0296393299
  H        37.2910509176       15.3739683444        2.7104908260
  H        38.6791616712       18.8330785380        4.8571378082
  H        36.5548064358       18.8561770784        6.1779535095
  H        37.2215380129       17.3434318663        1.2457218030
  H        20.3535008689       17.9711363787        4.6690459190
  H        35.1640306133       15.4230934526       12.0693324583
  H        37.3026524791       15.3469879757       13.3555451228
  H        38.7163373535       18.7834467273       11.1892579039
  H        36.5756436454       18.8374544235        9.8973348885
  H        37.2304417033       17.3282584891       14.7940394242
  H        35.1665579716       26.6772091434       11.4085333740
  H        28.5041703674       21.0777378812        7.8867611552
  H        25.7532986615       19.6386805983       12.1529614927
  H        23.5694691854       19.6930514266       13.3696576064
  H        22.3061484623       16.1755657366       11.2420453462
  H        24.4909725323       16.1416550444       10.0231296931
  H        23.7032786535       17.6633519970       14.7991979504
  H        29.0105105568       21.7204463664        9.7408023004
  H        29.1836906444       21.7195633773        6.5608499812
  H        32.0735060379       18.5402853687       10.9892668850
  H        27.4008736208       19.0675042006        8.0756565504
  H        14.8509177819       19.6492615697       12.1388267165
  H        17.0138923358       19.6958355551       13.3809063229
  H        18.3040023883       16.1880627979       11.2525941816
  H        16.1369372784       16.1572009222       10.0102082719
  H        16.9219741859       17.6969150950       14.8447922232
  H        46.0881065727       15.4316574186       12.0573050144
  H        43.9613042244       15.3633340428       13.3596765679
  H        42.5411013877       18.8013242051       11.1992862363
  H        44.6683714467       18.8444347270        9.8861040591
  H        44.0163599732       17.3090570907       14.8205000533
  H        20.2943129246       17.9239346587       11.4212659509
  H        46.0419439374       15.3868123456        4.0332344315
  H        43.9126834360       15.3248794506        2.7354199566
  H        42.5250819611       18.7977927660        4.8600062830
  H        44.6602568604       18.8451000207        6.1598321752
  H        44.0069895158       17.2994090936        1.2697702877
  H        46.1991668061       26.6825637168        4.6233418749
  H        52.7411432647       21.0626460345        8.1946769077
  H        14.8782602247       19.6743690402        3.8980934644
  H        17.0787049501       19.7472293369        2.7168932073
  H        18.3323913069       16.2262742414        4.8445972850
  H        16.1340506945       16.1774605311        6.0354307805
  H        16.9408982613       17.7112081941        1.2923912296
  H        52.3223945833       21.6732760994        6.2943473668
  H        52.0132803252       21.7021079074        9.4957108317
  H        49.0674609790       18.6079699444        5.2041593758
  H        13.2473948415       19.0163872043        7.9772665066
  H        29.9400485081       12.4626328386       12.2486104063
  H        28.8676796553       10.5329835698       13.4215282191
  H        25.2457499458       11.2014109069       11.2017333735
  H        26.3367932071       13.1193703763       10.0234695574
  H        27.1489450327       11.6815927864       14.7960988820
  H        30.9967684872       22.7803107699       12.0109895144
  H        32.0058868180       24.6573312857       13.3091213550
  H        35.7038933096       24.1266947557       11.1776290709
  H        34.6739008638       22.2567491052        9.8738566560
  H        33.6684971444       23.5781860698       14.7615623963
  H        25.6968400803        8.5994239423       11.4084750463
  H        30.8980302080       22.6707898351        3.9164986821
  H        31.9061723524       24.5495228586        2.6218776795
  H        35.5341415596       24.1603997142        4.9005990087
  H        34.5063170167       22.2916213538        6.2005205341
  H        33.6149889319       23.5679056219        1.2107501001
  H        40.6001660614       17.0956653107        4.6532842273
  H        32.5020235861       14.1463023580        8.2484062515
  H        29.8946555782       12.5429319388        3.8993527810
  H        28.8656990839       10.6381016352        2.6511272735
  H        25.2223373760       11.1609855871        4.8758866034
  H        26.2738806886       13.0489830403        6.1329668277
  H        27.1525587625       11.6926115480        1.2458652223
  H        33.3107804598       14.2404099735        6.4720350660
  H        33.4069465323       14.4120154526        9.5924652596
  H        32.1139982290       18.4441099097        5.1458790857
  H        30.1913794431       14.1552707175        8.0759182419
  H        16.1181563609        2.9632847868       12.1295539504
  H        14.9530338666        4.8204087663       13.3222789555
  H        17.3666431281        7.6858423393       11.2104590330
  H        18.5153176269        5.8182287789       10.0106843484
  H        16.7536226342        5.7395903546       14.7715455519
  H        44.8282348728       32.1402155961       11.9767639072
  H        45.9375543440       30.3413635503       13.3062022290
  H        43.6820924421       27.3781430606       11.1527084765
  H        42.5993752943       29.1899822806        9.8100782250
  H        44.2305244911       29.4367868454       14.7689096375
  H        14.8511770038        8.5461178323       11.3633245396
  H        44.9001151806       32.2340125715        3.9320937443
  H        46.0250479395       30.4130027305        2.6525764379
  H        43.7631313436       27.4840522387        4.8450054596
  H        42.6452890348       29.3177016300        6.1240325332
  H        44.2686985620       29.4705518392        1.2182009911
  H        35.0014946482       26.6316360444        4.6493883720
  H        36.6051566130       35.1338861190        8.1806649526
  H        16.1434684684        3.0129379940        3.9042643156
  H        14.9739033581        4.8563173877        2.6885254028
  H        17.3962612962        7.7471904249        4.7549907494
  H        18.5433198284        5.8932477818        5.9826114808
  H        16.7646820248        5.7555197893        1.2193277809
  H        36.2787050637       34.4821521710        6.2732873271
  H        36.3807302579       34.2090516023        9.4997161726
  H        40.5788310350       33.2014269291        5.1541551335
  H        17.4708451525        1.9468393987        7.9740967184
  H        29.1906476207       19.3604518941       12.5913065000
  H        28.7188933992       18.6863547630        3.7626967903
  H        31.8935824117       15.8665484426        3.5514636315
  H        31.4088554824       15.6305339366       12.4927498938
  H        28.0283781106       17.6651359490       14.3861862132
  H        29.3662445098       15.3324023827       14.3411235650
  H        32.4004389741       17.4913170423        1.2224481762
  H        18.8525616725        0.8687015697       12.3350489557
  H        40.5280245745       35.2289665999        3.9521804227
  H        42.3233597679       34.4184187281        3.5908129752
  H        22.0874045038        0.6918450035       12.3515278841
  H        11.5969684361       18.7129111138       12.3824511766
  H        52.2653027209       18.4308333415        3.6778126649
  H        49.2546812696       16.4771666976        3.5847584547
  H        10.1506730410       15.7981857135       12.2925158926
  H        50.8501465504       17.6926334466        3.9542044847
  H        10.0462331946       17.3945644080       12.0519635417
  H        20.2136714593        0.0018821691       12.0421047196
  H        39.1835582338       36.1242821737        3.6864285656
 Ni        30.5631084690       17.5950908535        2.6665893433
 Ni        30.9427927624       16.3085056817       -0.1638583359
 Ni        29.5833826356       18.0718463626        0.1695866887
 Ni        30.0533091007       17.3115714548       13.1563562673
  O        10.6498838791       14.3651430498        5.4858200618
  O        12.6131587990       14.6575149096        6.5838858372
  O        49.1478076890       16.8459454918        7.9897881274
  O        50.3502480308       20.9358177395        5.6481411892
  O        48.3485492418       20.5932714978        6.6659765063
  O        11.0515262585       17.0539063050        6.5006937265
  O        50.3210081213       20.8816485104       10.4068402217
  O        48.3467376306       20.5867127252        9.3271376449
  O        49.5435901806       18.2484071752       10.0683083345
  O        12.3589444991       18.6246165079        7.9997853161
  O        48.6932091947       14.1486132540        6.7512948497