     566
 i =      121, E =     -4712.2446582747
  C        11.8586859150       14.0534721287        5.7415801892
  C        12.4561566186       12.8905693554        5.0232129098
  C        11.7045168656       12.1715993779        4.0815362005
  C        12.2809251708       11.1093911190        3.3892130359
  C        13.6215101916       10.7395914556        3.6169508714
  C        14.3546448122       11.4432419872        4.5903925192
  C        13.7817166931       12.5082070566        5.2818923847
  C        14.2610022565        9.6488644000        2.8435712250
  C        14.2560798527        9.6566500257        1.4218625576
  C        13.7429838252       10.7588029129        0.6679537101
  C        49.1266636562       21.2332926811        5.8797670633
  C        48.5497961921       22.4011464527        5.1527283355
  C        49.2997854328       23.0683810999        4.1716267038
  C        48.7328282941       24.1074553573        3.4383692392
  C        47.4023175640       24.5091872284        3.6670433959
  C        46.6714467227       23.8604592412        4.6807308316
  C        47.2339145515       22.8156118870        5.4101492180
  C        46.7720666618       25.5868431925        2.8697240013
  C        46.7611787970       25.5572725166        1.4479539558
  C        47.2612912478       24.4422838947        0.7044214469
  C        14.8597787318        8.5701784586        0.7085849486
  C        14.8918802244        8.5969540142        3.5202049020
  C        49.1129962199       21.2033653892       10.1453430759
  C        48.5276755004       22.3648683988       10.8722521406
  C        49.2668390816       23.0253280815       11.8654037003
  C        48.6905923337       24.0599307918       12.5968506113
  C        47.3602870193       24.4569915431       12.3584477929
  C        46.6399987697       23.8124115169       11.3346103958
  C        47.2134670598       22.7764648617       10.6028137135
  C        46.7218178457       25.5318911621       13.1495509820
  C        46.7335306694       25.5281883727       14.5712645219
  C        47.2490799058       24.4290339884       15.3276569148
  C        40.5911395934       17.0774971268       15.2764892350
  C        40.5801338041       17.0820283748       12.4651057601
  C        11.8827626981       14.0863992777       10.2855144455
  C        12.4718338661       12.9104960978       10.9897008619
  C        11.7142731132       12.1774884155       11.9159448223
  C        12.2807017481       11.0949376799       12.5843340006
  C        13.6194212264       10.7208961891       12.3523778083
  C        14.3574109225       11.4362461628       11.3914212481
  C        13.7921564188       12.5175226925       10.7187583005
  C        14.2528999281        9.6240547935       13.1227778272
  C        14.2517852506        9.6440896224       14.5446212789
  C        13.7422322579       10.7531791037       15.2916991152
  C        22.5053190362        3.2439479847        5.7443513453
  C        23.2053608105        4.3467968932        5.0248864176
  C        24.2010849887        4.0627545851        4.0784071520
  C        24.8232434349        5.0983836418        3.3855672785
  C        24.4655258270        6.4413045081        3.6182554549
  C        23.4918826559        6.7168371269        4.5959969117
  C        22.8658355635        5.6830465016        5.2878655290
  C        25.0818735472        7.5463891812        2.8479988863
  C        25.0834228039        7.5391075551        1.4261329516
  C        24.3960730079        6.5403979740        0.6661303212
  C        38.2978494118       31.9277515678        5.8513579588
  C        37.5559300709       30.8398868737        5.1492645005
  C        36.5902738759       31.1483463438        4.1783839070
  C        35.9585131203       30.1318060353        3.4669771625
  C        36.2767109911       28.7797049492        3.7023968029
  C        37.2119330547       28.4787351644        4.7108795281
  C        37.8475828447       29.4942493803        5.4219665417
  C        35.6646326733       27.6922840839        2.9033102530
  C        35.7037385637       27.7066101818        1.4814151514
  C        36.4157020262       28.7074938361        0.7478834786
  C        25.7216719812        8.6084262141        0.7184880198
  C        25.6680894753        8.6206344175        3.5300290313
  C        38.3296304787       31.9602862679       10.1601820985
  C        37.6116060417       30.8874214650       10.9084775137
  C        36.6776913664       31.1970425110       11.9095494827
  C        36.0663310869       30.1803326333       12.6413889021
  C        36.3735643425       28.8263849355       12.3975058107
  C        37.2881183103       28.5267675562       11.3687618251
  C        37.9011485682       29.5399695417       10.6377234345
  C        35.7581580183       27.7281066785       13.1797389568
  C        35.7514874012       27.7249213010       14.6025650732
  C        36.4369684556       28.7173540170       15.3711967572
  C        46.1353828881       26.6207317067       15.2814352299
  C        46.0877704638       26.5802327862       12.4735422644
  C        22.4738169124        3.2581300696       10.2512679237
  C        23.1959997074        4.3654497672       10.9536392955
  C        24.2087633528        4.0743444026       11.8821031348
  C        24.8590624911        5.1010471157       12.5638574509
  C        24.5185698973        6.4508501396       12.3419986178
  C        23.5324462191        6.7351648251       11.3781223325
  C        22.8779625328        5.7085786693       10.6958436782
  C        25.1555904635        7.5441026578       13.1230715267
  C        25.1219774707        7.5369289671       14.5463847536
  C        24.4113352027        6.5414896903       15.2893171258
  C        26.5568549499       17.8269998042        5.7862628817
  C        25.2572864770       17.8841978689        5.0610441574
  C        25.0154227275       18.8777501369        4.0998429835
  C        23.8073060094       18.9051703808        3.4084250489
  C        22.8094280427       17.9416269089        3.6565480806
  C        23.0468904405       16.9718512308        4.6484587078
  C        24.2562499271       16.9395817536        5.3386409062
  C        21.5444583435       17.9321047575        2.8849056464
  C        21.5536607870       17.9180229164        1.4630183966
  C        22.7632026756       17.7912326142        0.7096026375
  C        34.4121233533       17.2280923684        5.8780405820
  C        35.7137378949       17.1655109797        5.1456314277
  C        35.9263330436       16.1848357332        4.1629000552
  C        37.1113988376       16.1623079766        3.4319545529
  C        38.1199415448       17.1199703451        3.6599385865
  C        37.9120074228       18.0783045835        4.6705905028
  C        36.7245791474       18.1049986740        5.4006507151
  C        39.3724159391       17.1238335546        2.8660090127
  C        39.3557879728       17.1215041009        1.4433837780
  C        38.1421758074       17.2388513276        0.6954951457
  C        20.3109062877       17.9447097837        0.7493323591
  C        20.3179777345       17.9312413391        3.5618983910
  C        34.3390459367       17.2080023731       10.2320231457
  C        35.6463189893       17.1153860083       10.9420033528
  C        35.8712535358       16.1394562074       11.9261049028
  C        37.0766912684       16.1098040940       12.6245868884
  C        38.0904051614       17.0542756485       12.3638250877
  C        37.8703067748       18.0021814599       11.3455700429
  C        36.6652663118       18.0371446614       10.6485010439
  C        39.3531010543       17.0724040203       13.1419149068
  C        39.3460749834       17.0951505077       14.5646478610
  C        38.1372009751       17.2250684176       15.3188456612
  C        35.1128942893       26.6475745697       15.3032096836
  C        35.1750950773       26.6549849626       12.4933192222
  C        26.5672577765       17.8272394752       10.3280196250
  C        25.2541878132       17.8810184254       11.0299373514
  C        25.0003059215       18.8800141723       11.9819914005
  C        23.7820637574       18.9111475250       12.6538311076
  C        22.7904719641       17.9435833967       12.3968531727
  C        23.0390386085       16.9705318641       11.4120062975
  C        24.2576130925       16.9368485208       10.7383259411
  C        21.5256766852       17.9288938273       13.1654047665
  C        21.5434601218       17.9150569463       14.5866393940
  C        22.7577963654       17.7896035448       15.3332927682
  C        14.0460589828       17.8326398176       10.2838577728
  C        15.3527887206       17.8989977871       11.0000444028
  C        15.6111979493       18.9135033443       11.9347263412
  C        16.8219252126       18.9417398639       12.6230581291
  C        17.8056600948       17.9580876602       12.3979988129
  C        17.5532945888       16.9693991124       11.4287239414
  C        16.3422072365       16.9368438964       10.7414766247
  C        19.0713169613       17.9427435820       13.1696044626
  C        19.0621580560       17.9375861654       14.5913507354
  C        17.8504196363       17.8412905455       15.3452745702
  C        46.7947913649       17.2115916919       10.1506138394
  C        45.4879798605       17.1307848515       10.8728626071
  C        45.2705764254       16.1422948932       11.8457897328
  C        44.0778021432       16.1096010993       12.5653852108
  C        43.0671888746       17.0650089359       12.3370882353
  C        43.2789228012       18.0285689175       11.3317997476
  C        44.4729451548       18.0651580958       10.6130381026
  C        41.8129269266       17.0736891012       13.1312225728
  C        41.8310424756       17.0840566889       14.5547758013
  C        43.0466660489       17.1856488234       15.3026166901
  C        20.3052094304       17.9423561567       15.3051515676
  C        20.2973582917       17.9218586854       12.4926885998
  C        46.7833037146       17.2365225415        5.8778097794
  C        45.4859815397       17.1402136221        5.1426336501
  C        45.2736781605       16.1492877486        4.1711663814
  C        44.0900252005       16.1238811089        3.4354385926
  C        43.0834197547       17.0861130493        3.6515520364
  C        43.2892923452       18.0511015349        4.6565011236
  C        44.4741807171       18.0829083827        5.3871079309
  C        41.8305629923       17.0992884534        2.8585762403
  C        41.8403662504       17.0959085097        1.4358092588
  C        43.0511982665       17.1888288808        0.6797550092
  C        46.1531044977       26.6371165258        0.7261988448
  C        46.1620285304       26.6559292069        3.5358472887
  C        14.0396796688       17.8287356105        5.7064307321
  C        15.3530314545       17.8988758735        5.0065266431
  C        15.6216796115       18.9210484293        4.0843149492
  C        16.8453816631       18.9590764979        3.4212639466
  C        17.8245847956       17.9737438193        3.6561634399
  C        17.5615933683       16.9777529210        4.6137189528
  C        16.3402275023       16.9394636554        5.2807981437
  C        19.0904547868       17.9549924996        2.8888241391
  C        19.0723144505       17.9432413677        1.4678388115
  C        17.8554327056       17.8437538865        0.7215991745
  C        28.8309692731       14.1588944131       10.4147715106
  C        28.2574105188       12.9755565353       11.1159944188
  C        28.9877746453       12.2424453535       12.0634959530
  C        28.4071054488       11.1431786257       12.6952412762
  C        27.0834487167       10.7511075601       12.4052441801
  C        26.3766796179       11.4674839920       11.4225205325
  C        26.9526686910       12.5644995281       10.7905088159
  C        26.4170240775        9.6548417678       13.1483959391
  C        26.3735430777        9.6806446328       14.5688585005
  C        26.8542514287       10.7969162615       15.3242376576
  C        32.1789933889       21.2350406165       10.1442100858
  C        32.7758000803       22.4009713515       10.8597215245
  C        32.0275702172       23.0736637023       11.8388919256
  C        32.5950412965       24.1138509860       12.5682319790
  C        33.9278320902       24.5104310057       12.3430955455
  C        34.6581176675       23.8567083781       11.3319580078
  C        34.0927831404       22.8116198304       10.6026486283
  C        34.5522624011       25.5862333079       13.1484086217
  C        34.5290769035       25.5616385862       14.5710316797
  C        34.0140228305       24.4484654648       15.3077333498
  C        25.7475220382        8.6027043724       15.2737939936
  C        25.7905132481        8.6048307780       12.4610847949
  C        32.0681696769       21.2048327147        5.8747022761
  C        32.6387540110       22.3691203637        5.1378530704
  C        31.9094927831       23.0051493932        4.1210206055
  C        32.4810462728       24.0460579343        3.3914181932
  C        33.7959780081       24.4794439888        3.6556497751
  C        34.5050294828       23.8566958976        4.7015225950
  C        33.9389377256       22.8132922075        5.4283251436
  C        34.4381228585       25.5623517139        2.8730937104
  C        34.4692789821       25.5501582814        1.4502739402
  C        33.9839106890       24.4435631932        0.6845230562
  C        40.5956483773       17.0870684732        0.7229055963
  C        40.6033161822       17.1293825045        3.5334156370
  C        28.7226582186       14.0629462016        5.7813984393
  C        28.1137617461       12.9114461243        5.0572428526
  C        28.8524672199       12.2024537096        4.0968056203
  C        28.2701438140       11.1442263759        3.4048871586
  C        26.9331359095       10.7686688649        3.6452657532
  C        26.2124085776       11.4624478058        4.6357320830
  C        26.7930656217       12.5210267263        5.3315223851
  C        26.2939297979        9.6823332682        2.8646636060
  C        26.3097283673        9.6967458893        1.4428717450
  C        26.8213482554       10.8061771326        0.6994733463
  C        18.1354030280        3.1808977119       10.3170918536
  C        17.4056875961        4.2780467080       11.0154292439
  C        16.3899030652        3.9994189367       11.9428156922
  C        15.7419330345        5.0392163661       12.6063659056
  C        16.0936169649        6.3830282656       12.3668456624
  C        17.0829627784        6.6528158265       11.4031077291
  C        17.7323310006        5.6156576275       10.7380126864
  C        15.4691828221        7.4906133713       13.1300071222
  C        15.4845279053        7.4899397329       14.5517352826
  C        16.1860568034        6.4962928768       15.3048861194
  C        42.9457258554       31.8595621601       10.0728144975
  C        43.6460513639       30.7718546850       10.8168155636
  C        44.5916530393       31.0931551006       11.8028196555
  C        45.1973350963       30.0876025858       12.5504984568
  C        44.8708094200       28.7345605094       12.3356880696
  C        43.9448870433       28.4202370347       11.3225666419
  C        43.3360852151       29.4253896035       10.5745196265
  C        45.4884426079       27.6552597337       13.1388500884
  C        45.4925763115       27.6808224571       14.5605451603
  C        44.8053774137       28.6887916529       15.3071716718
  C        14.8557617359        8.5625361167       15.2641398612
  C        14.8739387192        8.5624348853       12.4514613031
  C        42.9463354066       31.9615091726        5.8090503283
  C        43.6914458715       30.8853391618        5.0954587885
  C        44.6562822960       31.1912020651        4.1233864190
  C        45.2777390702       30.1715927299        3.4056264606
  C        44.9536425196       28.8213142571        3.6430269527
  C        44.0198509175       28.5236844986        4.6535178817
  C        43.3916409036       29.5404741492        5.3657175489
  C        45.5627029957       27.7238989283        2.8577906184
  C        45.5330292513       27.7172108302        1.4364940971
  C        44.8266322189       28.7074028951        0.6835662851
  C        35.0852919928       26.6402002885        0.7490959967
  C        35.0482829300       26.6206444975        3.5595541061
  C        18.1487532729        3.2468746000        5.7068258709
  C        17.4301899989        4.3437565787        4.9974610048
  C        16.4149329798        4.0524314427        4.0739569185
  C        15.7665699006        5.0830042679        3.3985124964
  C        16.1211838675        6.4282793661        3.6210915295
  C        17.1126097027        6.7117282433        4.5782997484
  C        17.7602932703        5.6828675720        5.2581595193
  C        15.4905533459        7.5239141148        2.8486193067
  C        15.4960818128        7.5071089260        1.4274672757
  C        16.1925451029        6.5052445851        0.6807046940
  H        10.6723847268       12.4656867488        3.9044828866
  H        11.6946620369       10.5508654546        2.6626885983
  H        15.3917083596       11.1687538757        4.7721041062
  H        14.3512120067       13.0714438610        6.0172970420
  H        13.3763179169       11.6310844803        1.2012450104
  H        50.3224806453       22.7483315536        3.9868332789
  H        49.3193154843       24.6226587515        2.6807502353
  H        45.6420281925       24.1614074419        4.8640329277
  H        46.6629819352       22.2905452062        6.1724230229
  H        47.6299829587       23.5759477382        1.2460659963
  H        14.8724452139        8.5883182449        4.6085179031
  H        50.2867952558       22.7022887992       12.0604728954
  H        49.2689923490       24.5752015794       13.3604730528
  H        45.6107301484       24.1099766788       11.1453108007
  H        46.6527049644       22.2545973882        9.8310074404
  H        47.6080724599       23.5519986485       14.7967714762
  H        40.5761322122       17.0438866036       11.3772490403
  H        48.6868267211       14.0955601965        7.7999645992
  H        10.6808877765       12.4667776365       12.0934687058
  H        11.6888930809       10.5246921582       13.2971336314
  H        15.3927981086       11.1582281855       11.2054399999
  H        14.3646286646       13.0867786218        9.9902433664
  H        13.3756036490       11.6218806479       14.7530692389
  H        47.9301551553       14.2192402263        9.7113839025
  H        47.7797522446       14.3737863036        6.4951357979
  H        49.0808417697       18.5511383767       10.8662523368
  H        10.4157079456       14.1344398867        7.9990915428
  H        24.4679050376        3.0237262715        3.8983896564
  H        25.5988763396        4.8766608175        2.6557207356
  H        23.2056722996        7.7501788261        4.7807232094
  H        22.0950792241        5.8874728113        6.0270508168
  H        23.8238155024        5.7838176809        1.1952559789
  H        36.3593195863       32.1928320363        3.9828493357
  H        35.2105582860       30.3766956910        2.7160016395
  H        37.4660226423       27.4380856813        4.9016778769
  H        38.5947219747       29.2673090782        6.1789035268
  H        36.9766427147       29.4580795014        1.2970082457
  H        25.6840127822        8.6019712073        4.6182740118
  H        36.4498543270       32.2413477563       12.1110137218
  H        35.3356208013       30.4283187452       13.4080994304
  H        37.5395994841       27.4864899983       11.1728685578
  H        38.6276193313       29.3111300672        9.8617413089
  H        37.0150312005       29.4752104539       14.8502214222
  H        46.1092045414       26.5877165079       11.3855078690
  H        44.6680699792       35.1159925294        7.8141264559
  H        24.4754427434        3.0339082400       12.0538637925
  H        25.6440892692        4.8649395670       13.2791897160
  H        23.2561766681        7.7716255814       11.1949892423
  H        22.0999453476        5.9287625298        9.9683682391
  H        23.8502857292        5.7861292081       14.7468905149
  H        44.9529450287       34.3897269377        9.6948332647
  H        44.9011739814       34.2067422843        6.4905570830
  H        40.6656968412       33.2092023541       10.8531754251
  H        23.1509677497        1.9577977345        8.0019207374
  H        25.7841621943       19.6226187682        3.9083322086
  H        23.6219006594       19.6802150064        2.6679942733
  H        22.2853694454       16.2203101835        4.8462193214
  H        24.4541438178       16.1778155688        6.0888987186
  H        23.7013427469       17.6620522062        1.2418090848
  H        35.1464068787       15.4484294784        3.9821597311
  H        37.2718538908       15.3932074017        2.6794252726
  H        38.6799183354       18.8271591255        4.8537973767
  H        36.5509022192       18.8623606458        6.1617183803
  H        37.2087845200       17.3756675843        1.2340376062
  H        20.3195902708       17.9646135690        4.6499135874
  H        35.0859944134       15.4190173055       12.1435859004
  H        37.2447935082       15.3487559193       13.3834989607
  H        38.6420231520       18.7396308711       11.1345392866
  H        36.4816228683       18.7881836364        9.8837692068
  H        37.1993917261       17.3504781526       14.7853317524
  H        35.1586069472       26.6788178768       11.4053201954
  H        28.5013416819       21.0700689720        7.8894294521
  H        25.7698971931       19.6230566592       12.1784063495
  H        23.5840416959       19.6890230330       13.3880209307
  H        22.2804353361       16.2175002501       11.2087494295
  H        24.4663070333       16.1738742876        9.9923359600
  H        23.6917630694       17.6596074740       14.7947342275
  H        29.0112503838       21.7148527443        9.7378993540
  H        29.1953390158       21.7006375773        6.5616076115
  H        32.0955421966       18.5497794454       10.9582664128
  H        27.3658172452       19.0146833587        8.0739181230
  H        14.8523680720       19.6734947790       12.1067580395
  H        17.0204736008       19.7325154263       13.3433088385
  H        18.3046121496       16.2035782783       11.2472686123
  H        16.1330969825       16.1606208360       10.0092738684
  H        16.9102601751       17.7326285648       14.8125441232
  H        46.0551632585       15.4133613016       12.0353369038
  H        43.9168581808       15.3364250323       13.3135657176
  H        42.5097082718       18.7754067296       11.1458744138
  H        44.6489789159       18.8272033212        9.8572265963
  H        43.9836996201       17.2933508261       14.7638953971
  H        20.2961628885       17.9534722820       11.4046154715
  H        46.0512768309       15.4092282722        3.9956595641
  H        43.9319349052       15.3498599321        2.6875287681
  H        42.5217329594       18.8020710628        4.8320241590
  H        44.6479273335       18.8469461550        6.1410537590
  H        43.9917906767       17.2987175754        1.2119227896
  H        46.1988184516       26.6824851868        4.6232945122
  H        52.7414115571       21.0628026904        8.1946199245
  H        14.8623856207       19.6791907684        3.9060726412
  H        17.0568130563       19.7548576338        2.7103026847
  H        18.3112064419       16.2112712065        4.7991463429
  H        16.1195254311       16.1600559377        6.0060145951
  H        16.9189873960       17.7368829147        1.2608919984
  H        52.3231977908       21.6738990629        6.2944299548
  H        52.0143182483       21.7032359978        9.4955730533
  H        49.0682072210       18.6083133752        5.2036876926
  H        13.2472606516       19.0162552493        7.9760100276
  H        30.0084637337       12.5431715273       12.2904189886
  H        28.9763763399       10.5755206457       13.4282161803
  H        25.3534038732       11.1794347740       11.1907149488
  H        26.4003112424       13.1343800774       10.0480561679
  H        27.2217213894       11.6694729801       14.7927573720
  H        31.0053536460       22.7538427637       12.0258595214
  H        32.0076925274       24.6325786668       13.3226710255
  H        35.6894737070       24.1522250048       11.1504082399
  H        34.6647348419       22.2842218069        9.8426671164
  H        33.6664287230       23.5758771046       14.7620496376
  H        25.8378398257        8.5887477233       11.3735299665
  H        30.9012496845       22.6593609053        3.9035406524
  H        31.9073697976       24.5379104256        2.6089236157
  H        35.5226851006       24.1778834046        4.9136327974
  H        34.4957289880       22.3123836086        6.2165769195
  H        33.6132879898       23.5668285373        1.2081342359
  H        40.6061823272       17.1040038658        4.6215413176
  H        32.5258516212       14.1458498480        8.1354360627
  H        29.8840089699       12.4913021659        3.9091640312
  H        28.8498419884       10.5921458122        2.6683929409
  H        25.1779459867       11.1855491454        4.8284372249
  H        26.2318707839       13.0742967982        6.0808737203
  H        27.1626308013       11.6856297012        1.2378906907
  H        33.2966762072       14.2341930630        6.3568943396
  H        33.4016664599       14.3181658282        9.5482569071
  H        31.9931706630       18.5340679731        5.0660392912
  H        30.2082665666       14.1378950743        8.0299465505
  H        16.1180037360        2.9628536358       12.1291179423
  H        14.9524528263        4.8195837855       13.3219173905
  H        17.3652059448        7.6857615467       11.2100870093
  H        18.5144203432        5.8185451492       10.0102858892
  H        16.7523852785        5.7388019874       14.7713586431
  H        44.8279776833       32.1402338422       11.9769613374
  H        45.9372416045       30.3413296051       13.3064121504
  H        43.6820623410       27.3781861968       11.1525466025
  H        42.5993698974       29.1900771962        9.8099385991
  H        44.2299380163       29.4364924340       14.7688616343
  H        14.8501620850        8.5456925914       11.3632413614
  H        44.9000490367       32.2338662285        3.9321311504
  H        46.0248200713       30.4127694936        2.6525460329
  H        43.7625504588       27.4839917286        4.8448209450
  H        42.6448441964       29.3177223647        6.1238866761
  H        44.2680300608       29.4702070575        1.2181748358
  H        34.9985882792       26.6346229122        4.6467362929
  H        36.6051592170       35.1340635701        8.1805887164
  H        16.1438219843        3.0128456563        3.9043229846
  H        14.9741699404        4.8560447716        2.6885463450
  H        17.3960693864        7.7472170697        4.7551527382
  H        18.5430562671        5.8934148788        5.9830190156
  H        16.7639742729        5.7549599172        1.2190840178
  H        36.2790554778       34.4821103257        6.2734561823
  H        36.3804745372       34.2092366005        9.4996807538
  H        40.5787524793       33.2020166337        5.1545001226
  H        17.4715439773        1.9473923630        7.9742083957
  H        29.1311732788       19.4708175525       12.5479650976
  H        28.7657000039       19.0707997368        3.7607071321
  H        30.4436616506       15.5775687654        3.7842799445
  H        28.0989437702       17.9940826316       14.4839731633
  H        30.3196220208       15.5270735726       14.4400197635
  H        31.9791121705       15.8703919729        2.5701062353
  H        18.8529232789        0.8690992395       12.3350899675
  H        40.5281576642       35.2290608883        3.9521655234
  H        42.3230449596       34.4178555174        3.5912762308
  H        22.0878276222        0.6919938375       12.3519565898
  H        11.5968690027       18.7123213276       12.3824320737
  H        52.2650671188       18.4317486453        3.6778133289
  H        49.2550293270       16.4765632364        3.5843133036
  H        10.1502934248       15.7984329980       12.2925531891
  H        50.8504350953       17.6927797270        3.9538953288
  H        10.0459938160       17.3950824200       12.0518250456
  H        20.2138514443        0.0022977285       12.0422098797
  H        39.1834573481       36.1241089075        3.6860278442
 Ni        30.1426921710       17.5970443978        2.5828607993
 Ni        30.8571112718       16.6458591691        0.5781639929
 Ni        29.4641245141       18.3793541803        0.3354530079
 Ni        30.1819314518       17.6752829181       13.4913785575
  O        10.6498603442       14.3652396230        5.4858431194
  O        12.6130585833       14.6574253125        6.5839153301
  O        49.1471853834       16.8458730786        7.9897995700
  O        50.3500693872       20.9360480915        5.6481515190
  O        48.3484287641       20.5931302223        6.6659693801
  O        11.0507966669       17.0539101304        6.5007421670
  O        50.3207440558       20.8816718310       10.4068508782
  O        48.3466085234       20.5865505332        9.3270179616
  O        49.5434083250       18.2483409459       10.0681715596
  O        12.3587270386       18.6247142752        7.9997411396
  O        48.6930005425       14.1488635006        6.7512204440
  O         8.2097113078       14.2107939232        9.3226952875