     574
 i =      196, E =     -4778.8796177365
  C        11.8587497882       14.0535901346        5.7415667614
  C        12.4562931387       12.8906694508        5.0232181748
  C        11.7045501373       12.1715935812        4.0817138342
  C        12.2809394195       11.1093848241        3.3893739431
  C        13.6215693976       10.7397296765        3.6169960504
  C        14.3548243258       11.4435079844        4.5902384049
  C        13.7819285341       12.5085045009        5.2817220356
  C        14.2610799921        9.6490214233        2.8436208357
  C        14.2564459435        9.6569284875        1.4219177407
  C        13.7432906312       10.7590635704        0.6680196401
  C        49.1268514017       21.2330701221        5.8796746928
  C        48.5501135549       22.4011013023        5.1526444498
  C        49.3001655316       23.0684244473        4.1716721981
  C        48.7332621204       24.1075836310        3.4384651545
  C        47.4027290791       24.5092522889        3.6670680660
  C        46.6717690355       23.8604079716        4.6805977458
  C        47.2341958062       22.8154877581        5.4099593689
  C        46.7724877144       25.5869582735        2.8697823747
  C        46.7614578550       25.5573783178        1.4480126444
  C        47.2614635360       24.4423305139        0.7044967923
  C        14.8603173091        8.5705419778        0.7086656672
  C        14.8918251918        8.5970645654        3.5202837927
  C        49.1131789909       21.2033657248       10.1452998734
  C        48.5277604811       22.3647563979       10.8724579881
  C        49.2670469195       23.0255732791       11.8652581450
  C        48.6907520264       24.0601556458       12.5967190164
  C        47.3602876242       24.4568288452       12.3586166651
  C        46.6398358035       23.8118931444       11.3351376973
  C        47.2133680867       22.7759600616       10.6033570652
  C        46.7218557151       25.5318217016       13.1496504403
  C        46.7336239272       25.5282050793       14.5713603638
  C        47.2491653054       24.4290364828       15.3277346520
  C        40.6175570189       17.0660839376       15.3130876619
  C        40.6320137350       17.0890035073       12.5031374101
  C        11.8830805561       14.0866498040       10.2855555127
  C        12.4724707943       12.9108831631       10.9898411810
  C        11.7148779340       12.1774151370       11.9156772655
  C        12.2815264558       11.0949798338       12.5840853604
  C        13.6204509627       10.7215052107       12.3524689468
  C        14.3585682337       11.4374448847       11.3920652860
  C        13.7930848769       12.5185993133       10.7193780986
  C        14.2540416270        9.6247101948       13.1228625076
  C        14.2526685520        9.6446003197       14.5447036428
  C        13.7428214508       10.7535679334       15.2917645963
  C        22.5111005741        3.2448239310        5.7516070832
  C        23.2234231795        4.3503923999        5.0490787887
  C        24.2192513033        4.0705255178        4.1015469929
  C        24.8448445863        5.1098924320        3.4176883183
  C        24.4905718490        6.4520123565        3.6605379072
  C        23.5222939454        6.7233939222        4.6445289020
  C        22.8922038837        5.6858086836        5.3269874095
  C        25.0978239836        7.5580735223        2.8846509903
  C        25.0763703954        7.5495498832        1.4628360252
  C        24.3746038746        6.5508823382        0.7155699587
  C        38.2983885855       31.9282869557        5.8518991113
  C        37.5577680612       30.8398261924        5.1499385432
  C        36.5959058899       31.1469700089        4.1751136817
  C        35.9669590068       30.1290440213        3.4634275165
  C        36.2842368420       28.7776914762        3.7037123062
  C        37.2150864821       28.4780808745        4.7164018911
  C        37.8483329303       29.4949998354        5.4272026423
  C        35.6749685196       27.6894579166        2.9046034690
  C        35.7176489424       27.7030396656        1.4829991873
  C        36.4344151054       28.7011515404        0.7500786343
  C        25.7049956073        8.6169830383        0.7435267555
  C        25.6923816801        8.6343404877        3.5555881047
  C        38.3305260661       31.9609173981       10.1600653883
  C        37.6141164166       30.8878704377       10.9092607097
  C        36.6841726261       31.1974250302       11.9138188271
  C        36.0754441667       30.1802913640       12.6470694431
  C        36.3811970186       28.8267786014       12.3998268076
  C        37.2915944497       28.5271575242       11.3676034843
  C        37.9024595876       29.5408380998       10.6357059034
  C        35.7668068923       27.7284804740       13.1820183194
  C        35.7642572699       27.7232136387       14.6046159161
  C        36.4553718038       28.7117204763       15.3734119801
  C        46.1355768613       26.6208138416       15.2815158520
  C        46.0878123336       26.5801441560       12.4736193267
  C        22.4620544773        3.2558989485       10.2566696031
  C        23.1591525558        4.3643800710       10.9771217611
  C        24.1643144755        4.0775865585       11.9144404804
  C        24.7954762609        5.1073066191       12.6081180312
  C        24.4415967731        6.4534058953       12.3872086935
  C        23.4595655876        6.7335298400       11.4182512011
  C        22.8238670959        5.7040228382       10.7248943327
  C        25.0744586856        7.5505837021       13.1611921366
  C        25.0651316026        7.5449156022       14.5837984795
  C        24.3672213467        6.5499896142       15.3387705279
  C        26.6236154704       17.8650099151        5.7808682876
  C        25.3174119189       17.9082114751        5.0553521584
  C        25.0678705069       18.8890779098        4.0824824227
  C        23.8540414650       18.9094034265        3.3982092043
  C        22.8536833389       17.9513463971        3.6621224486
  C        23.1008253908       16.9927873228        4.6632528531
  C        24.3158369838       16.9675349463        5.3464905297
  C        21.5802217635       17.9355313026        2.8984801264
  C        21.5796355850       17.9088518809        1.4757574478
  C        22.7840379974       17.7770989786        0.7146612824
  C        34.4241078198       17.2219259224        5.9134689206
  C        35.7154329616       17.1530532191        5.1682918413
  C        35.9165314486       16.1731188725        4.1837223700
  C        37.0990067308       16.1446729624        3.4490436790
  C        38.1132806831       17.0952538277        3.6779541898
  C        37.9147889969       18.0552274466        4.6887643524
  C        36.7304713410       18.0881995454        5.4214250100
  C        39.3681694695       17.0931260541        2.8907304827
  C        39.3624459682       17.0942261889        1.4685534760
  C        38.1544177048       17.2077169587        0.7108510018
  C        20.3325841172       17.9294809802        0.7677897073
  C        20.3551899313       17.9420957792        3.5810199151
  C        34.4379166790       17.2372924656       10.1905551185
  C        35.7396525979       17.1322386486       10.9123829553
  C        35.9436841921       16.1482565172       11.8912968149
  C        37.1351923819       16.1111322223       12.6118089901
  C        38.1513712748       17.0577962983       12.3750808993
  C        37.9534058575       18.0144898240       11.3617075064
  C        36.7618647672       18.0558864175       10.6436625252
  C        39.4007323020       17.0703799391       13.1689797692
  C        39.3793252978       17.0832225857       14.5906069423
  C        38.1625013500       17.2006406109       15.3340251906
  C        35.1231900509       26.6474381458       15.3049030753
  C        35.1788720707       26.6583395395       12.4951760760
  C        26.5711864580       17.8290752932       10.3253615282
  C        25.2566974651       17.8740344360       11.0311560746
  C        24.9933152616       18.8763530099       11.9769924496
  C        23.7758138540       18.9001020545       12.6514819062
  C        22.7920848893       17.9220962560       12.4027485775
  C        23.0496740812       16.9450885549       11.4241322973
  C        24.2682787044       16.9185838298       10.7487858474
  C        21.5284806888       17.9024758028       13.1757235673
  C        21.5528084944       17.8908306837       14.5972132126
  C        22.7710594083       17.7687633359       15.3382420938
  C        14.0468306193       17.8289895202       10.2889860796
  C        15.3510033098       17.8862467100       11.0144095482
  C        15.6070363065       18.8888291688       11.9629378931
  C        16.8158522450       18.9097943337       12.6561174078
  C        17.8031761501       17.9310029821       12.4231744686
  C        17.5519255924       16.9528516084       11.4423327354
  C        16.3426049993       16.9272569557       10.7506959476
  C        19.0723040434       17.9135652784       13.1921399349
  C        19.0714909950       17.9108550456       14.6147218421
  C        17.8647311719       17.8146659861       15.3766501252
  C        46.8024843406       17.2163353040       10.1578777796
  C        45.5098097409       17.1452459363       10.9006258405
  C        45.3073369581       16.1605979457       11.8803961865
  C        44.1240925557       16.1296705399       12.6140149341
  C        43.1114981215       17.0832430733       12.3910463715
  C        43.3110743350       18.0474840633       11.3842529711
  C        44.4953080738       18.0822644976       10.6512830128
  C        41.8573169289       17.0824221571       13.1803262093
  C        41.8638330835       17.0825922747       14.6028365981
  C        43.0727722677       17.1826898833       15.3609833025
  C        20.3185442701       17.9194323166       15.3226661900
  C        20.2962863432       17.8933480552       12.5094472336
  C        46.7833025408       17.2312647480        5.8874690141
  C        45.4798729618       17.1229290965        5.1700186731
  C        45.2619795314       16.1198654414        4.2130010550
  C        44.0736040855       16.0869790539        3.4869578765
  C        43.0717586644       17.0541442851        3.6996251112
  C        43.2806661888       18.0280688054        4.6942758620
  C        44.4701734488       18.0670808032        5.4157735793
  C        41.8237552993       17.0683152502        2.9031038313
  C        41.8466723743       17.0738353923        1.4814554097
  C        43.0647408319       17.1753568529        0.7380319117
  C        46.1533860036       26.6372448890        0.7262811256
  C        46.1625090539       26.6560571267        3.5359274514
  C        14.0464005591       17.8324447377        5.7089321822
  C        15.3680787277       17.9082645313        5.0194910649
  C        15.6411500114       18.9233559865        4.0902873333
  C        16.8704578175       18.9616312805        3.4358693409
  C        17.8550315863       17.9839986490        3.6843981276
  C        17.5889709018       16.9983835297        4.6524202485
  C        16.3617284155       16.9595651977        5.3104341526
  C        19.1222842700       17.9585648645        2.9147880239
  C        19.0976783265       17.9324923770        1.4931831028
  C        17.8775418577       17.8242567341        0.7528937546
  C        28.8094384008       14.0828315352       10.3600886856
  C        28.2035413085       12.9113600277       11.0558524916
  C        28.9334668540       12.1680900284       11.9949318621
  C        28.3367065494       11.0958646850       12.6539612115
  C        26.9970237639       10.7418086762       12.3959399888
  C        26.2882004695       11.4660296768       11.4206475935
  C        26.8817911284       12.5395402266       10.7619272134
  C        26.3302658293        9.6614453580       13.1593990562
  C        26.3185157434        9.6868706878       14.5804184455
  C        26.8276798384       10.7972695639       15.3259537619
  C        32.1774055805       21.2394291291       10.1522803644
  C        32.7710639833       22.4054818659       10.8721664969
  C        32.0191014860       23.0920082281       11.8380348634
  C        32.5888055622       24.1331490059       12.5648698461
  C        33.9267736026       24.5160685473       12.3480602742
  C        34.6615566816       23.8483003833       11.3501058352
  C        34.0939706457       22.8022339119       10.6246771112
  C        34.5544305191       25.5913398557       13.1507883328
  C        34.5337826829       25.5651763367       14.5726464010
  C        34.0138450111       24.4533782046       15.3079733344
  C        25.7039426945        8.6110705510       15.2987008698
  C        25.6917300060        8.6119728950       12.4856670533
  C        32.0766747207       21.2027467505        5.8759611039
  C        32.6446821423       22.3663028481        5.1328711849
  C        31.9105666442       23.0162508633        4.1286794768
  C        32.4832824537       24.0565912531        3.3986743500
  C        33.8039609052       24.4774216514        3.6529658567
  C        34.5188160774       23.8413916132        4.6864063851
  C        33.9516029299       22.7976606044        5.4118043585
  C        34.4463515140       25.5616701848        2.8727908603
  C        34.4770428982       25.5506559629        1.4506038362
  C        33.9855541459       24.4470792443        0.6845384499
  C        40.6085320227       17.0667339026        0.7584837835
  C        40.5928981030       17.0958999415        3.5689036250
  C        28.7359524287       14.0650516251        5.8178282720
  C        28.1267700398       12.9217875514        5.0764625324
  C        28.8688858207       12.2139265280        4.1181956789
  C        28.2876226756       11.1595677255        3.4179341998
  C        26.9491900843       10.7851774939        3.6520862996
  C        26.2237618152       11.4806033879        4.6377582257
  C        26.8025125440       12.5365043546        5.3389753912
  C        26.3097938545        9.6939391523        2.8783821144
  C        26.3098121873        9.7038315955        1.4565757662
  C        26.8216839524       10.8060734413        0.7020184039
  C        18.1353960976        3.1809412961       10.3171596622
  C        17.4060846886        4.2781621416       11.0157203250
  C        16.3904686016        3.9998347756       11.9433729184
  C        15.7428021393        5.0398360781       12.6068874941
  C        16.0945919314        6.3835772957       12.3670670602
  C        17.0839005721        6.6530566807       11.4032046700
  C        17.7329274999        5.6156957715       10.7381233893
  C        15.4703597511        7.4913022483       13.1301465244
  C        15.4855378446        7.4905290898       14.5518629566
  C        16.1870756604        6.4969141755       15.3050525341
  C        42.9458004166       31.8594949399       10.0728659131
  C        43.6461408415       30.7718284379       10.8168160341
  C        44.5916509799       31.0931487631       11.8029138567
  C        45.1973434930       30.0876095434       12.5505933832
  C        44.8709536591       28.7345326738       12.3357256988
  C        43.9451995129       28.4201919093       11.3224395039
  C        43.3363956393       29.4253281006       10.5743794237
  C        45.4885752962       27.6552471513       13.1389100537
  C        45.4928067220       27.6809121775       14.5606052964
  C        44.8057120547       28.6889339270       15.3072581739
  C        14.8566524255        8.5630652598       15.2642328310
  C        14.8751766653        8.5631432781       12.4515619600
  C        42.9464780957       31.9615379008        5.8090082423
  C        43.6917342560       30.8854269444        5.0955866529
  C        44.6562910846       31.1913505296        4.1232431373
  C        45.2778238675       30.1717771657        3.4055146293
  C        44.9541274858       28.8214373715        3.6431873118
  C        44.0207221462       28.5237633964        4.6540447406
  C        43.3924360649       29.5405148036        5.3662283220
  C        45.5631612523       27.7240522574        2.8579041733
  C        45.5334107061       27.7173825820        1.4366019943
  C        44.8270303805       28.7075766037        0.6836535419
  C        35.0966913183       26.6387848263        0.7502778059
  C        35.0567999258       26.6185929838        3.5604711979
  C        18.1485560860        3.2469441029        5.7066522706
  C        17.4299844626        4.3437598366        4.9973820816
  C        16.4148208237        4.0525018580        4.0737435693
  C        15.7665249875        5.0831329960        3.3983496376
  C        16.1210739901        6.4283931931        3.6211568361
  C        17.1123596456        6.7117565757        4.5785252569
  C        17.7600165135        5.6828496268        5.2583101568
  C        15.4906050689        7.5240934292        2.8487000179
  C        15.4965213185        7.5074403704        1.4275656058
  C        16.1932462853        6.5057112679        0.6808671556
  H        10.6723715779       12.4656144836        3.9048048035
  H        11.6946260181       10.5507791836        2.6629505582
  H        15.3919473562       11.1691379866        4.7717825362
  H        14.3514965612       13.0719616266        6.0169001298
  H        13.3763314539       11.6312039383        1.2013434056
  H        50.3228671037       22.7483594622        3.9869291077
  H        49.3197867671       24.6228114117        2.6808915864
  H        45.6422799972       24.1612022518        4.8637566886
  H        46.6631739222       22.2902728124        6.1720683185
  H        47.6301128744       23.5759894942        1.2461656386
  H        14.8721846767        8.5883515727        4.6085913545
  H        50.2871219224       22.7027672011       12.0600982895
  H        49.2692081037       24.5756352886       13.3601594190
  H        45.6103917522       24.1090630277       11.1461705395
  H        46.6524875109       22.2537328334        9.8318777191
  H        47.6080423764       23.5519639770       14.7968262526
  H        40.6372817184       17.0571066031       11.4152482526
  H        48.6871678523       14.0951075899        7.8000414902
  H        10.6813098025       12.4662678897       12.0928695662
  H        11.6896743499       10.5243348685       13.2965309042
  H        15.3941456531       11.1599022885       11.2064315652
  H        14.3655710831       13.0883029918        9.9912209735
  H        13.3760677909       11.6222025319       14.7531085163
  H        47.9301241622       14.2189542350        9.7107161660
  H        47.7800188320       14.3742825604        6.4954751158
  H        49.0830863094       18.5519764933       10.8671546717
  H        10.4160498437       14.1344200742        7.9987577369
  H        24.4811378402        3.0320160330        3.9114933919
  H        25.6175735137        4.8918642382        2.6836697835
  H        23.2405359461        7.7561998615        4.8388546054
  H        22.1228385575        5.8866734121        6.0685475269
  H        23.8101258320        5.7958778940        1.2549657450
  H        36.3663438272       32.1912023451        3.9765842444
  H        35.2222417767       30.3720143008        2.7086369240
  H        37.4679794282       27.4377436144        4.9104264472
  H        38.5928362027       29.2701324153        6.1873162009
  H        36.9986167228       29.4488660740        1.2998015308
  H        25.7216694136        8.6201693349        4.6436307965
  H        36.4579014357       32.2417452158       12.1169460524
  H        35.3479211203       30.4274082092       13.4170779500
  H        37.5414228729       27.4868834729       11.1696191456
  H        38.6262580494       29.3129677297        9.8569650282
  H        37.0364747050       29.4672506613       14.8523549220
  H        46.1091897307       26.5875190113       11.3855823168
  H        44.6682072256       35.1161483096        7.8139401432
  H        24.4415070616        3.0391073406       12.0809632108
  H        25.5781883313        4.8779103070       13.3280739065
  H        23.1747590440        7.7682582601       11.2387152153
  H        22.0498729281        5.9175087522        9.9912931664
  H        23.7965207431        5.7947326596       14.8062199938
  H        44.9535160985       34.3901281983        9.6950135766
  H        44.9015810450       34.2067663756        6.4905999116
  H        40.6662689061       33.2090896486       10.8531729854
  H        23.1504146166        1.9578220062        8.0047180275
  H        25.8380960109       19.6288775668        3.8765447583
  H        23.6662932269       19.6769391967        2.6504222834
  H        22.3409721630       16.2437838037        4.8769588697
  H        24.5156567024       16.2143938407        6.1051571543
  H        23.7252774614       17.6522708570        1.2420971781
  H        35.1298742706       15.4437003190        4.0053384728
  H        37.2532483000       15.3766462785        2.6942528036
  H        38.6889980085       18.7978228336        4.8705809168
  H        36.5623412630       18.8436540812        6.1855314340
  H        37.2148118983       17.3332609657        1.2413119785
  H        20.3623566806       17.9861138746        4.6687430147
  H        35.1506090892       15.4300277266       12.0861977428
  H        37.2907686587       15.3447800140       13.3680063165
  H        38.7306739531       18.7519388873       11.1723540575
  H        36.5896315265       18.8131606419        9.8826693532
  H        37.2289676228       17.3197425253       14.7916985671
  H        35.1603430840       26.6831349032       11.4072437322
  H        28.5067983609       21.0764171851        7.9619836252
  H        25.7554053716       19.6292120187       12.1652218877
  H        23.5716883459       19.6809078738       13.3809516141
  H        22.2984944707       16.1830964172       11.2265576409
  H        24.4835141126       16.1518930507       10.0083830586
  H        23.7018274465       17.6365410494       14.7945962527
  H        29.0137545320       21.7178954924        9.7535562698
  H        29.1607958290       21.7406626592        6.6216832354
  H        32.0599500265       18.5501203100       11.0032710764
  H        27.4048344414       19.0770037858        8.0817195951
  H        14.8482396827       19.6473991743       12.1416248256
  H        17.0104761234       19.6936796257       13.3849348576
  H        18.3037076312       16.1893027440       11.2531785168
  H        16.1374523247       16.1586456019       10.0093289658
  H        16.9216972655       17.7003931712       14.8500458666
  H        46.0947527506       15.4325506478       12.0606580634
  H        43.9698553187       15.3580451863       13.3651239920
  H        42.5382146378       18.7924539248       11.2065168268
  H        44.6637312719       18.8415321487        9.8910427427
  H        44.0139467671       17.2974499252       14.8308936195
  H        20.2899465833       17.9244772140       11.4213500534
  H        46.0396749705       15.3795434574        4.0395784674
  H        43.9089512869       15.3075591001        2.7461259704
  H        42.5135118049       18.7803073835        4.8658468895
  H        44.6506992043       18.8380096421        6.1609474130
  H        43.9998735865       17.2833699209        1.2799166264
  H        46.1993986128       26.6825957219        4.6233725949
  H        52.7412278976       21.0627049724        8.1946793693
  H        14.8800171120       19.6761613305        3.8973015090
  H        17.0807021240       19.7518499615        2.7183214326
  H        18.3402743775       16.2372282551        4.8526735717
  H        16.1416155326       16.1853279286        6.0414026312
  H        16.9440927468       17.7174749335        1.2972549723
  H        52.3228651447       21.6733754577        6.2941010925
  H        52.0136160790       21.7023781005        9.4957031850
  H        49.0673052961       18.6075217772        5.2040260192
  H        13.2475848128       19.0162398136        7.9773355109
  H        29.9656930664       12.4454968171       12.1960363512
  H        28.9039687590       10.5193961995       13.3815016770
  H        25.2526062761       11.2032035490       11.2149033380
  H        26.3316955195       13.1208017700       10.0260358719
  H        27.1971036019       11.6643579976       14.7864610549
  H        30.9913052790       22.7847710614       12.0150967110
  H        31.9998216043       24.6638067038       13.3097460257
  H        35.6971300528       24.1336747852       11.1764831481
  H        34.6674824667       22.2619591408        9.8749930509
  H        33.6600815749       23.5850716337       14.7595364981
  H        25.7206853351        8.5937847661       11.3976165682
  H        30.8943836498       22.6872732898        3.9233278794
  H        31.9056224564       24.5597876501        2.6263037125
  H        35.5409386680       24.1535929593        4.8904625528
  H        34.5112896657       22.2860469358        6.1911408396
  H        33.6099359426       23.5735376959        1.2096031252
  H        40.5870291036       17.0673495819        4.6568943886
  H        32.5181884390       14.1445680073        8.2539272829
  H        29.9041318483       12.4986071853        3.9439936014
  H        28.8701501900       10.6064723438        2.6843295227
  H        25.1881614513       11.2040207077        4.8248320068
  H        26.2396444488       13.0887821643        6.0878918732
  H        27.1863980199       11.6802041154        1.2335174177
  H        33.2992550363       14.1922907231        6.4397740795
  H        33.4076826490       14.4109502871        9.6029578463
  H        32.0914174489       18.5331311855        5.1636701382
  H        30.2357342849       14.1925430253        8.0770381648
  H        16.1184404410        2.9633391583       12.1298664970
  H        14.9533647022        4.8204690581       13.3225649390
  H        17.3662357608        7.6859337917       11.2099530101
  H        18.5148579660        5.8183672923       10.0101698543
  H        16.7536407778        5.7395672241       14.7715736847
  H        44.8279027323       32.1402309912       11.9771342007
  H        45.9371725670       30.3413681667       13.3065714614
  H        43.6825533250       27.3781172856       11.1522811704
  H        42.5998520492       29.1899643904        9.8096506831
  H        44.2303241922       29.4366916906       14.7689756549
  H        14.8515171792        8.5464687640       11.3633377374
  H        44.8997820072       32.2340343899        3.9317476616
  H        46.0246831937       30.4130175101        2.6522359799
  H        43.7638305754       27.4840289334        4.8456783605
  H        42.6459758197       29.3176827211        6.1247027982
  H        44.2685143417       29.4704546028        1.2182414800
  H        35.0062902376       26.6322178846        4.6476199967
  H        36.6051443662       35.1339885999        8.1806957154
  H        16.1437757707        3.0129305251        3.9039332165
  H        14.9742400559        4.8562918042        2.6882183905
  H        17.3957686892        7.7472338717        4.7555215763
  H        18.5428090634        5.8933363914        5.9831507662
  H        16.7646782396        5.7554656168        1.2192955145
  H        36.2785338910       34.4824526059        6.2731353796
  H        36.3805694225       34.2091810651        9.4996917439
  H        40.5792399447       33.2018078477        5.1540846580
  H        17.4709519487        1.9471387606        7.9740909406
  H        29.2161073055       19.3916942494       12.6002424922
  H        29.6271838492       19.4998765935        3.5130651480
  H        30.4056972263       15.6469047634        3.9063134954
  H        31.1177511577       15.5375053416       12.4457096640
  H        28.0735005398       17.9125089631       14.6510334060
  H        29.3917497789       15.7343879634       14.8446448437
  H        31.6676143655       19.3447836749        1.4261090635
  H        32.4077393132       16.0701534398        2.0663969038
  H        27.5986479872       15.6224353297        1.5841738078
  H        32.3847411384       18.5114396451       15.5654500843
  H        18.8536778193        0.8690814389       12.3351333466
  H        40.5277397084       35.2287101502        3.9520801557
  H        42.3237525393       34.4183802188        3.5907501977
  H        22.0877302006        0.6917087369       12.3516724960
  H        11.5972454778       18.7127322715       12.3821921041
  H        52.2651368243       18.4311129489        3.6775994682
  H        49.2548991641       16.4769886028        3.5845961467
  H        10.1510603357       15.7982729791       12.2924270886
  H        50.8502035338       17.6925464566        3.9541547505
  H        10.0465076113       17.3947001978       12.0519160652
  H        20.2150435671        0.0022274830       12.0419332048
  H        39.1834208169       36.1241443688        3.6864444784
 Ni        30.9458754435       17.7187592767        2.9123489229
 Ni        31.2780236642       16.4467556300       -0.0807798263
 Ni        29.8810297029       18.5361324243        0.1621450319
 Ni        29.9378826890       17.3214338798       13.1611100278
  O        10.6499354558       14.3651458427        5.4858332347
  O        12.6131774856       14.6575455318        6.5838999904
  O        49.1476744679       16.8459304409        7.9897432735
  O        50.3502668310       20.9358141699        5.6480806372
  O        48.3485111234       20.5932476018        6.6659446362
  O        11.0515821878       17.0538462626        6.5007053214
  O        50.3209185448       20.8816335352       10.4068652367
  O        48.3466530138       20.5866738619        9.3271038735