     570
 i =      256, E =     -4745.5720022469
  C        11.8587165854       14.0535200869        5.7415078886
  C        12.4560584285       12.8904626704        5.0233499577
  C        11.7043013015       12.1715907980        4.0816769111
  C        12.2805627407       11.1092925048        3.3893858144
  C        13.6211283517       10.7394048027        3.6170878754
  C        14.3543258982       11.4428662828        4.5906182078
  C        13.7815645808       12.5079513767        5.2820741210
  C        14.2605643486        9.6486897731        2.8436773315
  C        14.2558138598        9.6565918314        1.4219694720
  C        13.7426645771       10.7587276506        0.6680675449
  C        49.1267947339       21.2332811139        5.8796319868
  C        48.5500204738       22.4012816074        5.1526501913
  C        49.2999854258       23.0685111651        4.1715445499
  C        48.7330394553       24.1076516167        3.4383543353
  C        47.4025564845       24.5093963087        3.6671215432
  C        46.6717078286       23.8606559346        4.6807943674
  C        47.2341641189       22.8157416902        5.4101189776
  C        46.7722370150       25.5870250212        2.8698290699
  C        46.7610867777       25.5573110425        1.4480715687
  C        47.2609637333       24.4421788682        0.7045969245
  C        14.8597424687        8.5702577442        0.7086825036
  C        14.8914601313        8.5967910728        3.5203080462
  C        49.1130072021       21.2034230478       10.1453159495
  C        48.5275567103       22.3647251504       10.8725379617
  C        49.2666716431       23.0252550459       11.8656547722
  C        48.6903199165       24.0597875960       12.5971373761
  C        47.3599947101       24.4567348726       12.3587099517
  C        46.6397177945       23.8120193577       11.3349697133
  C        47.2132989203       22.7761505190       10.6031651416
  C        46.7215238258       25.5316843431       13.1497327077
  C        46.7331562284       25.5280103611       14.5714359307
  C        47.2486191131       24.4288215735       15.3278366650
  C        40.6312172198       17.1201861443       15.3272934441
  C        40.6595126475       17.1579814956       12.5182386924
  C        11.8830338917       14.0864530464       10.2853979360
  C        12.4722629011       12.9106412766       10.9896144612
  C        11.7147489609       12.1776696515       11.9159225573
  C        12.2812370581       11.0951858500       12.5843588096
  C        13.6199683092       10.7211855163       12.3524020590
  C        14.3579060931       11.4364883270       11.3913637718
  C        13.7925810644       12.5176880978       10.7186294613
  C        14.2534803263        9.6244254799       13.1228665066
  C        14.2520575981        9.6443179284       14.5447138228
  C        13.7421776732       10.7532467881       15.2918115641
  C        22.5118523097        3.2451995315        5.7547212074
  C        23.2255874815        4.3528462519        5.0589789061
  C        24.2272458609        4.0775695926        4.1164727960
  C        24.8519732137        5.1205140914        3.4377736124
  C        24.4904651095        6.4605813588        3.6812173367
  C        23.5174772790        6.7275258006        4.6613274296
  C        22.8882801508        5.6864176237        5.3386196926
  C        25.0933608228        7.5683308092        2.9058971351
  C        25.0706176514        7.5557400495        1.4846781050
  C        24.3666479315        6.5555921719        0.7413815538
  C        38.2984168762       31.9278844213        5.8519416323
  C        37.5569750472       30.8392337546        5.1503700910
  C        36.5884785474       31.1469191029        4.1823196684
  C        35.9572047057       30.1296903016        3.4716872433
  C        36.2792488936       28.7782018021        3.7051928994
  C        37.2175662819       28.4777994629        4.7107560069
  C        37.8525341274       29.4941349223        5.4211699825
  C        35.6658337273       27.6920906526        2.9060505189
  C        35.6968330399       27.7124224546        1.4841421936
  C        36.4106172966       28.7126616705        0.7511772501
  C        25.6990188372        8.6208053840        0.7626662459
  C        25.6838124721        8.6480264932        3.5750003512
  C        38.3298878291       31.9614756414       10.1600516387
  C        37.6099930305       30.8909015694       10.9100288846
  C        36.6773309549       31.2056787581       11.9105595531
  C        36.0621495404       30.1924979972       12.6438445428
  C        36.3642958822       28.8374435087       12.4010081388
  C        37.2784267706       28.5325293880       11.3736046709
  C        37.8955300062       29.5424122935       10.6413437300
  C        35.7423983079       27.7428753933       13.1828579405
  C        35.7361424366       27.7382958862       14.6054545865
  C        36.4284949458       28.7256134890       15.3745844343
  C        46.1351514988       26.6206613999       15.2815526096
  C        46.0876166238       26.5800641593       12.4736687574
  C        22.4599262068        3.2556562929       10.2597560234
  C        23.1515619777        4.3627911240       10.9870909681
  C        24.1473491121        4.0740248325       11.9339213420
  C        24.7739118860        5.1021631815       12.6340494289
  C        24.4256241571        6.4491867717       12.4095444800
  C        23.4524039459        6.7310546776       11.4320053092
  C        22.8206968626        5.7031481163       10.7327925999
  C        25.0590540789        7.5460743833       13.1832899974
  C        25.0536771502        7.5434656880       14.6061056883
  C        24.3561591674        6.5512049135       15.3647619188
  C        26.5976311909       17.8405926857        5.7883839472
  C        25.2980935630       17.9289575208        5.0570596695
  C        25.0594822739       18.9408618711        4.1142408335
  C        23.8472950052       18.9898084396        3.4269938505
  C        22.8415635333       18.0299779028        3.6599794052
  C        23.0771783489       17.0418929912        4.6346742638
  C        24.2882828542       16.9888047862        5.3203948779
  C        21.5709720469       18.0304010165        2.8928731011
  C        21.5714433271       18.0151470811        1.4703353539
  C        22.7781229954       17.9065140554        0.7091722677
  C        34.4174237353       17.2192256669        5.9175512693
  C        35.7053939058       17.1608101091        5.1648042355
  C        35.9016887478       16.1957499492        4.1647089531
  C        37.0853423515       16.1728458862        3.4311557830
  C        38.1050570715       17.1131591172        3.6780130858
  C        37.9094651214       18.0595334539        4.7019993293
  C        36.7239176702       18.0878778494        5.4324926158
  C        39.3636278819       17.1140720890        2.8973388073
  C        39.3653975340       17.1329115525        1.4756756976
  C        38.1620048806       17.2610371057        0.7130042919
  C        20.3238026836       18.0198505942        0.7632074518
  C        20.3466561940       18.0196680528        3.5759222695
  C        34.4762644574       17.2402367218       10.1869825937
  C        35.7827261256       17.1617445286       10.9026288032
  C        35.9944252272       16.1796631592       11.8819461432
  C        37.1803710954       16.1605882163       12.6101545293
  C        38.1822534837       17.1229701089       12.3786421563
  C        37.9776140720       18.0786111182       11.3659983994
  C        36.7896400276       18.1027927047       10.6403340073
  C        39.4263193447       17.1421210018       13.1781062372
  C        39.3972997253       17.1481372428       14.5990460626
  C        38.1770416410       17.2657348145       15.3363618702
  C        35.0909460109       26.6643342307       15.3051046612
  C        35.1534516648       26.6737334289       12.4957014991
  C        26.5587274905       17.8327034877       10.3306064744
  C        25.2416417381       17.8962026095       11.0256818656
  C        24.9645153497       18.9352295264       11.9269314587
  C        23.7472006869       18.9717777078       12.6003188002
  C        22.7784660056       17.9699763087       12.3945536532
  C        23.0473102081       16.9567539416       11.4567516363
  C        24.2654664840       16.9179120699       10.7814940523
  C        21.5171844797       17.9623244530       13.1709925768
  C        21.5437250449       17.9789659857       14.5921541412
  C        22.7648343346       17.8894674097       15.3328079925
  C        14.0446171449       17.8307419105       10.2874261252
  C        15.3472612178       17.8944559576       11.0122088231
  C        15.5992731730       18.9078278051       11.9500464903
  C        16.8067398201       18.9383605020       12.6438724863
  C        17.7948103682       17.9583222654       12.4213988429
  C        17.5472747572       16.9681886466       11.4520637343
  C        16.3391841982       16.9334232307       10.7591656347
  C        19.0629276571       17.9557400930       13.1895889594
  C        19.0624937423       17.9713795958       14.6116297320
  C        17.8564346714       17.8705510840       15.3740228710
  C        46.8071079496       17.2201853382       10.1606300385
  C        45.5206875196       17.1623054970       10.9120576196
  C        45.3184412314       16.1872058162       11.9008488538
  C        44.1398788728       16.1717118771       12.6418147556
  C        43.1342883178       17.1314107463       12.4150933899
  C        43.3346827126       18.0875085153       11.4010923148
  C        44.5139282607       18.1069071554       10.6612547189
  C        41.8806047930       17.1411403821       13.2020369396
  C        41.8809030010       17.1349454686       14.6238633651
  C        43.0867402749       17.2257730045       15.3877813119
  C        20.3095927814       18.0007663635       15.3184386641
  C        20.2856146319       17.9315985971       12.5058072098
  C        46.7826869451       17.2292686169        5.8915033472
  C        45.4753167315       17.1179101845        5.1827175548
  C        45.2551833734       16.1181778101        4.2230285011
  C        44.0645589407       16.0881115017        3.5007546793
  C        43.0637395537       17.0544306140        3.7211395914
  C        43.2730728291       18.0219258017        4.7216693158
  C        44.4651143481       18.0586898426        5.4385777019
  C        41.8186842639       17.0789382030        2.9210905928
  C        41.8492712746       17.1016385064        1.5001393806
  C        43.0716600700       17.2073900660        0.7643183694
  C        46.1529782649       26.6371318817        0.7263118064
  C        46.1623861810       26.6562054443        3.5359483461
  C        14.0454712739       17.8359715163        5.7102066257
  C        15.3660327694       17.9244561548        5.0212826077
  C        15.6279243534       18.9502155890        4.1004584873
  C        16.8548498478       19.0051928354        3.4435783511
  C        17.8477641419       18.0338131620        3.6815845276
  C        17.5927217095       17.0367896338        4.6408761946
  C        16.3674979554       16.9812995086        5.3017453579
  C        19.1139062160       18.0281775889        2.9104959429
  C        19.0890680889       18.0077780802        1.4890290706
  C        17.8694137253       17.8869540903        0.7500729712
  C        28.8032480074       14.0806852290       10.3979738348
  C        28.1963697745       12.9006654668       11.0759134382
  C        28.9260394963       12.1528171923       12.0118536341
  C        28.3289082987       11.0786226835       12.6658243995
  C        26.9883245542       10.7288816347       12.4077501016
  C        26.2812696641       11.4539217906       11.4317114125
  C        26.8761526594       12.5284422481       10.7758778124
  C        26.3200873067        9.6532433576       13.1749098939
  C        26.3134528098        9.6821550866       14.5962474275
  C        26.8308193169       10.7907163710       15.3395371573
  C        32.1714874965       21.2451543047       10.1512856768
  C        32.7587868098       22.4183325600       10.8652738192
  C        32.0005041617       23.1021299587       11.8284588390
  C        32.5629860298       24.1461271497       12.5565116415
  C        33.9003641984       24.5337756673       12.3446434970
  C        34.6411130637       23.8690155139       11.3489176472
  C        34.0804370538       22.8206959074       10.6212077177
  C        34.5231070681       25.6095243307       13.1502848599
  C        34.4966320834       25.5847378496       14.5723220191
  C        33.9665720576       24.4773634171       15.3074859677
  C        25.6964874987        8.6100912006       15.3177225014
  C        25.6766031052        8.6051118403       12.5045257553
  C        32.0810991670       21.1999208557        5.8839511629
  C        32.6492801043       22.3619056680        5.1351822939
  C        31.8943802651       23.0494519945        4.1719676886
  C        32.4640498491       24.0883355444        3.4372303432
  C        33.8014001801       24.4754295560        3.6520948816
  C        34.5389555388       23.8037721596        4.6460084164
  C        33.9754492432       22.7577911363        5.3715150765
  C        34.4362825237       25.5654815497        2.8727004415
  C        34.4494315009       25.5640515726        1.4505564165
  C        33.9415121007       24.4680587283        0.6842332053
  C        40.6147741610       17.1075683490        0.7718285820
  C        40.5849904206       17.1026039757        3.5813794310
  C        28.7418235387       14.0627068722        5.8573807152
  C        28.1195280061       12.9260016076        5.1121879030
  C        28.8688260858       12.2008451404        4.1724457104
  C        28.2855117845       11.1544425161        3.4618173471
  C        26.9377497011       10.8002610251        3.6709768151
  C        26.2032745149       11.5126539394        4.6375658750
  C        26.7835385822       12.5647181364        5.3452073793
  C        26.3006995446        9.7066076054        2.8960417445
  C        26.3051433618        9.7087230544        1.4739321038
  C        26.8249288844       10.8046326238        0.7159832279
  C        18.1353960078        3.1810327699       10.3172190837
  C        17.4060777883        4.2782227382       11.0158318474
  C        16.3900996767        3.9998120090       11.9430580199
  C        15.7423059462        5.0397633132       12.6065239304
  C        16.0944253077        6.3834816702       12.3671186137
  C        17.0841557027        6.6530565223       11.4037298026
  C        17.7333342238        5.6157464551       10.7387021796
  C        15.4699746644        7.4911225411       13.1301646010
  C        15.4850857955        7.4903362573       14.5518803904
  C        16.1866604292        6.4967264108       15.3050367686
  C        42.9457726633       31.8595477313       10.0728230958
  C        43.6461748717       30.7718156525       10.8167363960
  C        44.5914585387       31.0931365311       11.8030379483
  C        45.1971285514       30.0875696806       12.5507202680
  C        44.8708462630       28.7344989939       12.3356995578
  C        43.9452788152       28.4201830109       11.3222444742
  C        43.3365032359       29.4253345189       10.5741931412
  C        45.4883401404       27.6551681540       13.1389163545
  C        45.4924361059       27.6807747505       14.5606131604
  C        44.8053435018       28.6888151881       15.3072459692
  C        14.8560382597        8.5627805221       15.2642462481
  C        14.8747825941        8.5629343942       12.4515768968
  C        42.9464177917       31.9617259135        5.8090303285
  C        43.6916898962       30.8855564626        5.0955638370
  C        44.6561236984       31.1914751598        4.1231153351
  C        45.2776311188       30.1718786460        3.4053715015
  C        44.9540088174       28.8215566864        3.6431698940
  C        44.0207174827       28.5239010161        4.6541240395
  C        43.3924804484       29.5406669824        5.3663167643
  C        45.5629555343       27.7241251845        2.8578960780
  C        45.5330689048       27.7173250569        1.4366008850
  C        44.8266730857       28.7074994476        0.6836409423
  C        35.0689065308       26.6525930247        0.7506391720
  C        35.0555556736       26.6161235702        3.5615548954
  C        18.1485278855        3.2469209012        5.7066441362
  C        17.4299755923        4.3436867962        4.9972177784
  C        16.4145426752        4.0523724144        4.0739014103
  C        15.7661509068        5.0829741677        3.3985424625
  C        16.1209146928        6.4282145456        3.6210979874
  C        17.1125479047        6.7116491578        4.5780749446
  C        17.7602928212        5.6827634815        5.2578166398
  C        15.4902607884        7.5238602595        2.8486915173
  C        15.4960693461        7.5072058205        1.4275541142
  C        16.1928522479        6.5055190439        0.6808525266
  H        10.6721988624       12.4657983360        3.9046379753
  H        11.6942454489       10.5508650501        2.6628251140
  H        15.3913638674       11.1682502260        4.7723117671
  H        14.3511525560       13.0711636540        6.0174277733
  H        13.3757238411       11.6308840378        1.2013815043
  H        50.3226584681       22.7484060853        3.9867132453
  H        49.3194790498       24.6228555350        2.6806941280
  H        45.6422940769       24.1615892640        4.8641174776
  H        46.6632468196       22.2905985543        6.1723375473
  H        47.6296088463       23.5758562712        1.2462966791
  H        14.8719628377        8.5880858751        4.6086215315
  H        50.2866613588       22.7022904425       12.0606904636
  H        49.2686643103       24.5751380744       13.3607508504
  H        45.6104272902       24.1094896026       11.1456940857
  H        46.6526247013       22.2541817804        9.8313777551
  H        47.6074381496       23.5517043167       14.7969648849
  H        40.6699135690       17.1281782522       11.4304145529
  H        48.6871458492       14.0950229208        7.8000762631
  H        10.6813429689       12.4669074623       12.0934246998
  H        11.6894470173       10.5249385109       13.2971724901
  H        15.3932783293       11.1584486285       11.2053134872
  H        14.3649507908       13.0868525925        9.9899534501
  H        13.3754832202       11.6219383194       14.7532092255
  H        47.9302739128       14.2183042938        9.7107986207
  H        47.7800674561       14.3739455397        6.4953128529
  H        49.0845216523       18.5527758275       10.8674988271
  H        10.4163001196       14.1342605264        7.9985408213
  H        24.4935364788        3.0402937198        3.9258534200
  H        25.6286204799        4.9075447414        2.7064164624
  H        23.2312650584        7.7590944354        4.8556519496
  H        22.1145771786        5.8825897185        6.0768251563
  H        23.8024688946        5.8025656783        1.2837982951
  H        36.3550557504       32.1911761837        3.9884844282
  H        35.2068274914       30.3734177853        2.7227551155
  H        37.4747237800       27.4375669595        4.8997259724
  H        38.6022043515       29.2685370518        6.1759849598
  H        36.9768696154       29.4588810999        1.3008043780
  H        25.7105468417        8.6377507146        4.6631420021
  H        36.4536713704       32.2512187650       12.1101748295
  H        35.3322857041       30.4440656872       13.4101950098
  H        37.5259766138       27.4910017404       11.1794002767
  H        38.6216155339       29.3102078800        9.8659769341
  H        37.0092585479       29.4815146550       14.8537198974
  H        46.1091823328       26.5875613641       11.3856400529
  H        44.6683419532       35.1162832705        7.8139358094
  H        24.4215652757        3.0350747331       12.1023134515
  H        25.5501831219        4.8708520545       13.3603059596
  H        23.1717193177        7.7663982961       11.2495790447
  H        22.0537488651        5.9185062401        9.9923730216
  H        23.7829953873        5.7956561713       14.8352654102
  H        44.9542009657       34.3906189908        9.6952556764
  H        44.9018355712       34.2068894535        6.4905957511
  H        40.6663305791       33.2093118661       10.8531860813
  H        23.1502836906        1.9581527387        8.0059598060
  H        25.8337253657       19.6833002132        3.9332567503
  H        23.6663637058       19.7803746538        2.7018493601
  H        22.3116426643       16.2917883259        4.8223148360
  H        24.4820008225       16.2126017947        6.0568245292
  H        23.7217838162       17.8032527430        1.2368540156
  H        35.1117693044       15.4728419502        3.9739335786
  H        37.2370039930       15.4150532124        2.6655113391
  H        38.6876899325       18.7945929719        4.8968012657
  H        36.5581354072       18.8317739310        6.2083152071
  H        37.2212310570       17.3864111651        1.2411286505
  H        20.3540889590       18.0526293186        4.6639989674
  H        35.2094270784       15.4505928147       12.0691454662
  H        37.3443434897       15.3966202775       13.3669995460
  H        38.7458532388       18.8270061779       11.1827596039
  H        36.6088770127       18.8585836528        9.8796082133
  H        37.2478295883       17.3926040971       14.7884498982
  H        35.1395635163       26.6968014932       11.4076772687
  H        28.5059279013       21.0911646559        7.9953019085
  H        25.7145342053       19.7071060311       12.0826534139
  H        23.5325610800       19.7792142669       13.2970544776
  H        22.3057606484       16.1776250395       11.2925547063
  H        24.4905678833       16.1238745409       10.0734519995
  H        23.6982011337       17.7745165240       14.7896173771
  H        29.0153712514       21.7120562284        9.7642128128
  H        29.1361404205       21.7491717804        6.6113767687
  H        32.1101710650       18.5709526789       11.0480757394
  H        27.3483036255       19.0870031310        8.1049132188
  H        14.8384265783       19.6665003276       12.1188787990
  H        17.0004915830       19.7301473193       13.3643006233
  H        18.3008633728       16.2040349169       11.2729150713
  H        16.1351530911       16.1569144067       10.0257566124
  H        16.9144957714       17.7450989296       14.8480237268
  H        46.1016818796       15.4546645708       12.0810875779
  H        43.9825552136       15.4069617140       13.3992142933
  H        42.5662343298       18.8368503805       11.2229227218
  H        44.6854075372       18.8587132092        9.8944627654
  H        44.0305486283       17.3421159761       14.8626907483
  H        20.2781118919       17.9422268542       11.4173614926
  H        46.0334448342       15.3799757409        4.0431901662
  H        43.8981275907       15.3132981681        2.7555033432
  H        42.5055147698       18.7722907082        4.8994305483
  H        44.6480017591       18.8259452250        6.1868912615
  H        44.0040114893       17.3082544967        1.3122493216
  H        46.1994329993       26.6828821526        4.6233822701
  H        52.7411695150       21.0627145833        8.1945821719
  H        14.8595721490       19.6978441014        3.9165331198
  H        17.0568625059       19.8033895699        2.7325129972
  H        18.3512505794       16.2805052290        4.8321606257
  H        16.1555614254       16.1987486812        6.0263580263
  H        16.9372731210       17.7739686396        1.2954280463
  H        52.3224200456       21.6735643394        6.2946240698
  H        52.0135708527       21.7024832825        9.4955739948
  H        49.0669666488       18.6071894451        5.2039431893
  H        13.2474806542       19.0168515569        7.9774768315
  H        29.9579680876       12.4292203503       12.2154098909
  H        28.8952057820       10.4989957408       13.3915651236
  H        25.2457370602       11.1919496288       11.2245903802
  H        26.3274183681       13.1111970484       10.0400825231
  H        27.2073123231       11.6528228531       14.7971307624
  H        30.9738543760       22.7889956616       12.0024516014
  H        31.9688865823       24.6751293334       13.2984982039
  H        35.6761182656       24.1586810518       11.1790750058
  H        34.6585021141       22.2828992382        9.8731577531
  H        33.6023863045       23.6132607759       14.7593166064
  H        25.7031787905        8.5850910514       11.4164651455
  H        30.8582724329       22.7607229061        4.0077238988
  H        31.8707659140       24.6186945754        2.6954339756
  H        35.5741934053       24.0907869212        4.8186217344
  H        34.5512530357       22.2181272717        6.1195864503
  H        33.5581287386       23.5966824492        1.2079759730
  H        40.5738961782       17.0604411758        4.6688897750
  H        32.5149960634       14.1435404050        8.2831156310
  H        29.9109844404       12.4706650487        4.0182288354
  H        28.8742364129       10.5910761029        2.7409496940
  H        25.1601840325       11.2523885822        4.8055802403
  H        26.2119464456       13.1307713933        6.0770638465
  H        27.1964378283       11.6767432830        1.2464858864
  H        33.3143226131       14.2453274390        6.4699518123
  H        33.4102688512       14.4132604852        9.6178424366
  H        32.1769258467       18.5126273937        5.2892313241
  H        30.2200950264       14.1507402672        8.1332317571
  H        16.1178723050        2.9633081109       12.1292173448
  H        14.9526372657        4.8203817632       13.3219442618
  H        17.3668550921        7.6859163416       11.2109175492
  H        18.5156787381        5.8184445091       10.0111985367
  H        16.7533136292        5.7394625433       14.7715262811
  H        44.8276732173       32.1402271556       11.9773093447
  H        45.9368635612       30.3413378384       13.3067920770
  H        43.6827922966       27.3781016834       11.1519287022
  H        42.6001702654       29.1900436604        9.8092533819
  H        44.2300325767       29.4366147429       14.7689389133
  H        14.8512068781        8.5462465993       11.3633505880
  H        44.8995751248       32.2341637071        3.9315611065
  H        46.0244331338       30.4131249229        2.6520298322
  H        43.7639479755       27.4841621772        4.8458629634
  H        42.6461704977       29.3179086614        6.1249455128
  H        44.2682488174       29.4704485744        1.2182303233
  H        35.0180354717       26.6209241537        4.6493314406
  H        36.6053092650       35.1341504450        8.1805961693
  H        16.1433872459        3.0127924883        3.9043091091
  H        14.9736776263        4.8561198133        2.6886195526
  H        17.3962395582        7.7471076436        4.7547481990
  H        18.5433830886        5.8932869302        5.9823237082
  H        16.7643873355        5.7553538252        1.2192953716
  H        36.2790358463       34.4821013191        6.2733084443
  H        36.3812593961       34.2089409847        9.4993182006
  H        40.5794577347       33.2022161754        5.1538741572
  H        17.4711125678        1.9475123110        7.9740902437
  H        28.8652135804       19.2308469429       12.4696498356
  H        28.9120681527       18.4386560815        3.9318189208
  H        31.4299544120       15.6619855318        3.6267919139
  H        31.0161752379       15.4930746713       12.4984788589
  H        29.1828788284       15.9808295269       14.9390039385
  H        30.9400727392       20.2625369333        3.1467662604
  H        32.9453136402       17.4017900766        1.7750060976
  H        32.5831859529       18.5839689815       14.5653174819
  H        18.8538900699        0.8690398119       12.3353274400
  H        40.5280635190       35.2288864405        3.9520102751
  H        42.3246283208       34.4194226070        3.5902331177
  H        22.0874884496        0.6921507786       12.3513924802
  H        11.5966250514       18.7128913371       12.3824455387
  H        52.2647732062       18.4310488537        3.6772685062
  H        49.2555928921       16.4763788534        3.5839639876
  H        10.1504272793       15.7982812734       12.2927873095
  H        50.8499587594       17.6924960903        3.9540751301
  H        10.0461961044       17.3946781715       12.0519198780
  H        20.2153282771        0.0022332525       12.0418825363
  H        39.1837752460       36.1244756057        3.6865196398
 Ni        31.1542520310       17.9416002192        3.3241964285
 Ni        31.0754949219       16.8599432012        0.2513835790
 Ni        30.3959692705       19.0636094761       -0.1694992681
 Ni        30.3891835431       17.6020965523       13.4056084581
  O        10.6498627212       14.3651575119        5.4858369065
  O        12.6131648531       14.6575286421        6.5838552573
  O        49.1479161638       16.8458807826        7.9895948079
  O        50.3502085349       20.9360653293        5.6480342209
  O        48.3485274313       20.5933123505        6.6658638294
  O        11.0514112556       17.0538392319        6.5007941045
  O        50.3207574850       20.8817132794       10.4068798188
  O        48.3466619375       20.5867159426        9.3270217117
  O        49.5438069938       18.2483901998       10.0681356147
  O        12.3592274608       18.6245903189        7.9995286851