     568
 i =      104, E =     -4744.3420741647
  C        11.8588964411       14.0536535216        5.7415240957
  C        12.4564576516       12.8907350664        5.0232607685
  C        11.7047157544       12.1716132648        4.0817751444
  C        12.2811459721       11.1094350059        3.3894282991
  C        13.6218038232       10.7398472441        3.6170335345
  C        14.3550311343       11.4436509819        4.5902812147
  C        13.7821193699       12.5086443325        5.2817617047
  C        14.2613669550        9.6491668005        2.8436488889
  C        14.2567372505        9.6570980962        1.4219451489
  C        13.7436638708       10.7592788962        0.6680599958
  C        49.1270976950       21.2330651551        5.8794759159
  C        48.5504681429       22.4011213493        5.1524487604
  C        49.3004612859       23.0684047561        4.1713988207
  C        48.7335413988       24.1076200131        3.4382697784
  C        47.4030518279       24.5094032186        3.6669917175
  C        46.6721625357       23.8605823473        4.6805980570
  C        47.2346072256       22.8156429625        5.4099003375
  C        46.7727293483       25.5870985570        2.8697486478
  C        46.7617001228       25.5575270618        1.4479774322
  C        47.2617239582       24.4425026557        0.7044417175
  C        14.8606500272        8.5707421357        0.7086784413
  C        14.8921026290        8.5971939741        3.5202987721
  C        49.1133504646       21.2034553505       10.1453360100
  C        48.5279828590       22.3648529016       10.8725001037
  C        49.2672175519       23.0256244332       11.8653739960
  C        48.6909003521       24.0602343973       12.5967859468
  C        47.3604842873       24.4570251958       12.3585615889
  C        46.6400740163       23.8120895215       11.3350468533
  C        47.2136333968       22.7761579171       10.6032973014
  C        46.7219837742       25.5319731283       13.1496048732
  C        46.7337935511       25.5283606183       14.5713152179
  C        47.2493962663       24.4292161388       15.3276821676
  C        40.6272215773       17.1451897384       15.2818742180
  C        40.6328893581       17.1619513283       12.4736302838
  C        11.8831122608       14.0866849677       10.2853853923
  C        12.4725834244       12.9110047690       10.9897540713
  C        11.7151321777       12.1777233102       11.9158562875
  C        12.2818063883       11.0953191433       12.5842929684
  C        13.6206579772       10.7216843060       12.3524924188
  C        14.3585812942       11.4373500249       11.3917250450
  C        13.7930683275       12.5184698381       10.7190071680
  C        14.2542778931        9.6248940514       13.1228727228
  C        14.2530035314        9.6448310429       14.5447187018
  C        13.7431929846       10.7538007223       15.2918042889
  C        22.5127119089        3.2471115570        5.7512740098
  C        23.2259677691        4.3550488411        5.0500230522
  C        24.2268503148        4.0790403400        4.1063778295
  C        24.8529855483        5.1203568203        3.4248866742
  C        24.4947554375        6.4623292382        3.6646430104
  C        23.5212873233        6.7298765550        4.6449541359
  C        22.8911859511        5.6903631966        5.3254194879
  C        25.1003088041        7.5710809089        2.8885744588
  C        25.0839124900        7.5595651528        1.4660095250
  C        24.3919718234        6.5548675194        0.7175051097
  C        38.2953166264       31.9273118225        5.8502804885
  C        37.5457710466       30.8432986715        5.1466852123
  C        36.5820951903       31.1608237012        4.1761631694
  C        35.9392418549       30.1516406234        3.4635125713
  C        36.2420156076       28.7954148751        3.6964670623
  C        37.1760058239       28.4853755685        4.7039065153
  C        37.8234487756       29.4938884619        5.4160602000
  C        35.6169989705       27.7145054518        2.8955101326
  C        35.6616625276       27.7265624806        1.4728836793
  C        36.3831418870       28.7211460547        0.7401411479
  C        25.7070860246        8.6300374097        0.7460043893
  C        25.6872134313        8.6529353504        3.5585805478
  C        38.3282103613       31.9612007856       10.1587142706
  C        37.6043758630       30.8908979560       10.9046377418
  C        36.6693076031       31.2056043059       11.9030932280
  C        36.0502178051       30.1923478204       12.6328751892
  C        36.3507126007       28.8369439526       12.3892271607
  C        37.2666160009       28.5322410912       11.3631796609
  C        37.8875845131       29.5421558357       10.6342058269
  C        35.7273676974       27.7426507696       13.1703223262
  C        35.7181907303       27.7408117371       14.5931528666
  C        36.4080750475       28.7292706635       15.3631668432
  C        46.1356834525       26.6209200323       15.2814886003
  C        46.0878243165       26.5802455543       12.4735895312
  C        22.4648924699        3.2574335831       10.2580132137
  C        23.1670824154        4.3657162912       10.9775635113
  C        24.1749803000        4.0778984745       11.9120543476
  C        24.8108443762        5.1062762009       12.6046100925
  C        24.4598990454        6.4538601238       12.3866657060
  C        23.4750805870        6.7349759133       11.4203900343
  C        22.8349438247        5.7068334782       10.7279998254
  C        25.0949199302        7.5514222256       13.1613601010
  C        25.0826723300        7.5480337046       14.5847064701
  C        24.3888088299        6.5508245811       15.3404466483
  C        26.6762429664       17.8765293799        5.7282699423
  C        25.3776927909       17.9602747678        4.9977065600
  C        25.1457259309       18.9212889600        4.0010480678
  C        23.9178651961       18.9656327825        3.3400649426
  C        22.8885556228       18.0498135507        3.6453793717
  C        23.1213033426       17.1131328107        4.6707712000
  C        24.3448842951       17.0664245299        5.3333007742
  C        21.6063957830       18.0333487195        2.8949589554
  C        21.5969623880       17.9776215275        1.4728513860
  C        22.7962302937       17.8204831994        0.7084903478
  C        34.4368474517       17.3266658855        5.8398391956
  C        35.7392249149       17.2611224823        5.1201985963
  C        35.9633110512       16.2584828802        4.1633411358
  C        37.1487381982       16.2312113799        3.4366879654
  C        38.1443425692       17.2038986876        3.6494767039
  C        37.9289179853       18.1824047432        4.6380488744
  C        36.7385419570       18.2162247073        5.3609656322
  C        39.3961830331       17.1986939288        2.8604191455
  C        39.3819864769       17.1907321681        1.4389803140
  C        38.1701620578       17.3028324705        0.6867984608
  C        20.3458869242       17.9863282687        0.7717543749
  C        20.3832744814       18.0427512620        3.5842972203
  C        34.4997521394       17.2199852177       10.0758386546
  C        35.7863926769       17.1606394569       10.8227564250
  C        35.9878717085       16.1841319242       11.8102832706
  C        37.1588709439       16.1776401363       12.5626433854
  C        38.1598212161       17.1432311933       12.3426428495
  C        37.9631907483       18.0981183883       11.3271121084
  C        36.7878056949       18.1136042310       10.5816190978
  C        39.4044466331       17.1585540335       13.1428369008
  C        39.3863459542       17.1702327348       14.5639513704
  C        38.1718922293       17.2910837340       15.3099582597
  C        35.0720906169       26.6677373313       15.2926715260
  C        35.1398191649       26.6723603922       12.4834039907
  C        26.5732400784       17.8280216880       10.3289338474
  C        25.2590963119       17.8767325333       11.0322265785
  C        25.0022350218       18.8715418556       11.9880687190
  C        23.7821743966       18.8997412618       12.6575185000
  C        22.7903246886       17.9319957522       12.3989532484
  C        23.0426441375       16.9622708130       11.4112136795
  C        24.2623364904       16.9326554854       10.7380086989
  C        21.5277274358       17.9141106602       13.1741853772
  C        21.5567577596       17.9141533346       14.5959157947
  C        22.7768504989       17.7903881635       15.3329051101
  C        14.0464826464       17.8275350521       10.2914520561
  C        15.3483132156       17.8827741007       11.0220932100
  C        15.6048962208       18.8901617543       11.9655431013
  C        16.8126994411       18.9133133873       12.6606122661
  C        17.7990745553       17.9316335867       12.4354991085
  C        17.5458107840       16.9461845079       11.4623334671
  C        16.3377542477       16.9189028781       10.7680894409
  C        19.0708428444       17.9219686281       13.2011417414
  C        19.0758289448       17.9356669388       14.6240333559
  C        17.8729285428       17.8476495394       15.3929484930
  C        46.8040097404       17.2149877799       10.1508576015
  C        45.5070739114       17.1472755418       10.8807975975
  C        45.2914216477       16.1639709136       11.8579864286
  C        44.1052305276       16.1480726542       12.5859895852
  C        43.1080944286       17.1157750721       12.3571733344
  C        43.3182424477       18.0747440261       11.3485630468
  C        44.5049579516       18.0944333610       10.6215921207
  C        41.8583136401       17.1384626515       13.1479035495
  C        41.8708042023       17.1455389041       14.5688511863
  C        43.0846391478       17.2384290584       15.3197681957
  C        20.3256888411       17.9544070746       15.3266038243
  C        20.2922740458       17.8976383989       12.5134145583
  C        46.7878391897       17.2367246977        5.8816412564
  C        45.4914364260       17.1466911800        5.1506154872
  C        45.2724139320       16.1575138742        4.1797884769
  C        44.0898461051       16.1456919408        3.4436545958
  C        43.0963268794       17.1204692211        3.6606717670
  C        43.3075166925       18.0819637856        4.6667731611
  C        44.4906709650       18.0998467767        5.3981446217
  C        41.8493165349       17.1510468235        2.8648776109
  C        41.8662256859       17.1510652556        1.4437459860
  C        43.0825736048       17.2387167489        0.6962838100
  C        46.1535245282       26.6373432687        0.7262563943
  C        46.1626581714       26.6561478563        3.5359096375
  C        14.0527499970       17.8390525146        5.7111799942
  C        15.3805377000       17.9331029733        5.0295432522
  C        15.6482578260       18.9578513601        4.1084390253
  C        16.8799578386       19.0155685681        3.4582230307
  C        17.8767271220       18.0482468472        3.7004705050
  C        17.6161491692       17.0534016420        4.6613349762
  C        16.3862514654       16.9952882952        5.3158016916
  C        19.1450239601       18.0371681492        2.9260219580
  C        19.1142622030       17.9949020857        1.5037257855
  C        17.8916168229       17.8742439146        0.7692144088
  C        28.8257941903       14.0950405930       10.3609559920
  C        28.2212290770       12.9253228457       11.0636462112
  C        28.9464732077       12.1890210721       12.0127266608
  C        28.3490834587       11.1156678305       12.6711203811
  C        27.0142927965       10.7500187542       12.4013538678
  C        26.3108889433       11.4682753954       11.4174679545
  C        26.9033627698       12.5439748837       10.7615763977
  C        26.3462679227        9.6666735069       13.1611029221
  C        26.3239039819        9.6970514379       14.5819501831
  C        26.8132597123       10.8168177784       15.3262863871
  C        32.1798316762       21.2457889668       10.1164119810
  C        32.7593936637       22.4117015286       10.8428664495
  C        32.0068681857       23.0696775368       11.8285056229
  C        32.5653170347       24.1136388084       12.5604049404
  C        33.8924082977       24.5273073878       12.3319101057
  C        34.6275917665       23.8845539173       11.3169353797
  C        34.0722045841       22.8365451554       10.5855908926
  C        34.5124269086       25.6054760686       13.1375625765
  C        34.4874430402       25.5821620009       14.5600289521
  C        33.9721280797       24.4687978367       15.2953107373
  C        25.7129432939        8.6192563092       15.3005206019
  C        25.7138532122        8.6131700854       12.4865820628
  C        31.9883448414       21.2044929877        5.7935176868
  C        32.5446198074       22.3788918196        5.0678176848
  C        31.8331238339       23.0107749732        4.0356711956
  C        32.4088310872       24.0665395728        3.3309231877
  C        33.7113556505       24.5156939466        3.6309641772
  C        34.3988576760       23.8995732785        4.6952412919
  C        33.8279410242       22.8458353219        5.4007272107
  C        34.3677314071       25.5966731016        2.8590702155
  C        34.4129592026       25.5781077222        1.4367713182
  C        33.9352842143       24.4679390988        0.6715048842
  C        40.6249688176       17.1518266535        0.7260850767
  C        40.6214628134       17.1956646883        3.5350215077
  C        28.7018341915       14.1332699186        5.7805180699
  C        28.0914669320       12.9801521269        5.0550245613
  C        28.8255633020       12.2933452508        4.0746049985
  C        28.2538309351       11.2250117768        3.3883870804
  C        26.9298052712       10.8171184889        3.6514708767
  C        26.2136063395       11.4929165898        4.6578529322
  C        26.7846259408       12.5601381462        5.3496316321
  C        26.2973799547        9.7179902047        2.8815944455
  C        26.2979926377        9.7250521498        1.4588201766
  C        26.7959835335       10.8322033059        0.7019582022
  C        18.1354770836        3.1809378358       10.3171035730
  C        17.4061573601        4.2782331706       11.0156021818
  C        16.3906073269        3.9999182342       11.9433347594
  C        15.7429427286        5.0399264382       12.6068548375
  C        16.0947115024        6.3836711326       12.3670204737
  C        17.0838366496        6.6531369503       11.4029581658
  C        17.7328683210        5.6157722899       10.7378745754
  C        15.4705172983        7.4914213763       13.1301216675
  C        15.4857817344        7.4907005035       14.5518469106
  C        16.1872385440        6.4970253911       15.3050331323
  C        42.9456231254       31.8595020084       10.0727757080
  C        43.6459345948       30.7718203359       10.8167616568
  C        44.5914569852       31.0931567365       11.8028496942
  C        45.1971654570       30.0876327452       12.5505380134
  C        44.8707774628       28.7345494298       12.3357074094
  C        43.9449221186       28.4202030483       11.3225168371
  C        43.3360862553       29.4253207652       10.5744413366
  C        45.4884952130       27.6552932181       13.1388905640
  C        45.4927736838       27.6809486318       14.5605935534
  C        44.8055964481       28.6888976943       15.3072663069
  C        14.8569200979        8.5632466138       15.2642378256
  C        14.8753573895        8.5632948091       12.4515600436
  C        42.9463392321       31.9615297991        5.8089890280
  C        43.6916187592       30.8854165458        5.0955842070
  C        44.6563484308       31.1913370213        4.1234037354
  C        45.2779062215       30.1717800675        3.4056698944
  C        44.9540718491       28.8214450592        3.6431802431
  C        44.0204314003       28.5237659324        4.6538112796
  C        43.3920915384       29.5405042350        5.3659809381
  C        45.5631996927       27.7240870220        2.8578972094
  C        45.5334533505       27.7174188758        1.4365905189
  C        44.8269533725       28.7075432854        0.6836628659
  C        35.0388722244       26.6636082452        0.7383891824
  C        34.9834011385       26.6506291049        3.5487710231
  C        18.1487655678        3.2469971670        5.7067353795
  C        17.4301886415        4.3439115842        4.9975470029
  C        16.4150889573        4.0526564546        4.0738392611
  C        15.7668218645        5.0832830690        3.3984041224
  C        16.1213781856        6.4285396952        3.6211980253
  C        17.1126096143        6.7119112493        4.5786280827
  C        17.7602305746        5.6829991568        5.2584563741
  C        15.4909204983        7.5242414854        2.8487127554
  C        15.4967944468        7.5075935479        1.4275712791
  C        16.1934625622        6.5058431914        0.6808494754
  H        10.6725174043       12.4655731943        3.9048818978
  H        11.6948443312       10.5508019294        2.6630156317
  H        15.3921735362       11.1693355503        4.7718002832
  H        14.3517105332       13.0721807357        6.0168630343
  H        13.3767209480       11.6314189575        1.2013975524
  H        50.3231311671       22.7483026547        3.9865308581
  H        49.3200398139       24.6228503574        2.6806762453
  H        45.6427281657       24.1614714419        4.8639094529
  H        46.6636656411       22.2905292010        6.1721302073
  H        47.6303977933       23.5761589855        1.2460847037
  H        14.8724392674        8.5884655104        4.6086062585
  H        50.2872716031       22.7027986882       12.0602951618
  H        49.2693457291       24.5757303655       13.3602235852
  H        45.6106769675       24.1093470141       11.1459616581
  H        46.6528094444       22.2540303069        9.8317158061
  H        47.6082775652       23.5521461632       14.7967743922
  H        40.6348799122       17.1272925802       11.3858939731
  H        48.6871639559       14.0952217624        7.8001826156
  H        10.6816254523       12.4666791446       12.0932344416
  H        11.6900489226       10.5248527985       13.2969605356
  H        15.3940698161       11.1596351828       11.2058532411
  H        14.3654087801       13.0879186763        9.9905339922
  H        13.3765072511       11.6224791237       14.7531731228
  H        47.9303313894       14.2193636373        9.7107918889
  H        47.7799556458       14.3738539273        6.4954133369
  H        49.0839601823       18.5520159873       10.8669453094
  H        10.4164421465       14.1343398592        7.9986584937
  H        24.4930390657        3.0414658352        3.9168847237
  H        25.6295488416        4.9030852963        2.6946590036
  H        23.2347971748        7.7616210514        4.8381716492
  H        22.1183375256        5.8903038904        6.0636592283
  H        23.8307145178        5.7968590734        1.2560599615
  H        36.3607812672       32.2075525691        3.9814824848
  H        35.1936219973       30.4064290974        2.7134543924
  H        37.4202502333       27.4422145772        4.8940666865
  H        38.5687526219       29.2569945271        6.1719242661
  H        36.9475575779       29.4687909325        1.2897348680
  H        25.7154257921        8.6396424561        4.6467077353
  H        36.4467765135       32.2511447244       12.1039162202
  H        35.3186478442       30.4440107521       13.3975581220
  H        37.5128928708       27.4905638469       11.1680948838
  H        38.6150658010       29.3096288152        9.8602311128
  H        36.9923791895       29.4830280509       14.8431406905
  H        46.1091452169       26.5876302174       11.3855515013
  H        44.6680670073       35.1160286569        7.8139845177
  H        24.4511295931        3.0389955834       12.0779961970
  H        25.5951123549        4.8735909768       13.3218711255
  H        23.1907814724        7.7700369022       11.2418186227
  H        22.0593101490        5.9234389619        9.9969548319
  H        23.8245019782        5.7904790622       14.8082996918
  H        44.9532141171       34.3900123983        9.6949553735
  H        44.9009819906       34.2067147429        6.4904316764
  H        40.6654733823       33.2086854932       10.8526548308
  H        23.1509216876        1.9576948056        8.0047541393
  H        25.9362042602       19.6265025206        3.7536257984
  H        23.7452282898       19.7188923533        2.5744182657
  H        22.3424384581       16.3946448548        4.9178162715
  H        24.5293881023       16.3291178489        6.1105174894
  H        23.7390828657       17.6907773335        1.2316802560
  H        35.1928774088       15.5099794968        3.9966934532
  H        37.3194632046       15.4505398575        2.6986864263
  H        38.6921865677       18.9391741884        4.8070756282
  H        36.5543351338       18.9878293431        6.1048333995
  H        37.2327916212       17.4313639259        1.2204402037
  H        20.3958974556       18.1013180480        4.6713801539
  H        35.2083389682       15.4467138821       11.9852649086
  H        37.3131802605       15.4177945121       13.3255787353
  H        38.7294067718       18.8511326213       11.1549609676
  H        36.6150376766       18.8692056494        9.8189608668
  H        37.2361697047       17.4100066056       14.7707438335
  H        35.1254723394       26.6963407963       11.3953766017
  H        28.5089059776       21.0976661234        8.0268874264
  H        25.7715102853       19.6126136561       12.1927728692
  H        23.5845976383       19.6751837469       13.3943641224
  H        22.2866498436       16.2073838786       11.2049232874
  H        24.4715043124       16.1711524922        9.9906010471
  H        23.7045660983       17.6396873825       14.7889394343
  H        29.0032470812       21.7158516573        9.7652351705
  H        29.0450219619       21.8025770576        6.5928557190
  H        32.1503111478       18.5128081531       10.9323636419
  H        27.3959807305       19.0777685096        8.1015006105
  H        14.8478131629       19.6519321133       12.1377827378
  H        17.0078835186       19.7024696401       13.3835792372
  H        18.2958858190       16.1793563643       11.2797307546
  H        16.1325104554       16.1456600051       10.0315258181
  H        16.9275121423       17.7261636734       14.8721285870
  H        46.0712108878       15.4287234743       12.0420440265
  H        43.9370622069       15.3810968192       13.3388047777
  H        42.5540235627       18.8279195840       11.1684018900
  H        44.6878272705       18.8499763275        9.8612322967
  H        44.0238642973       17.3424815415       14.7841711512
  H        20.2805830226       17.9201670664       11.4251295295
  H        46.0437291574       15.4107912165        4.0050770756
  H        43.9221703950       15.3756326068        2.6938156086
  H        42.5469353856       18.8403534103        4.8403383864
  H        44.6739194009       18.8604418691        6.1530674184
  H        44.0203062549       17.3424403428        1.2344710842
  H        46.1995132882       26.6826823023        4.6233557893
  H        52.7412341498       21.0627563813        8.1947244728
  H        14.8799708223       19.7037457119        3.9167293656
  H        17.0810053122       19.8134784715        2.7464430310
  H        18.3743041163       16.2984360880        4.8594942864
  H        16.1747718113       16.2123073699        6.0402163082
  H        16.9603643711       17.7731233187        1.3184357499
  H        52.3226060231       21.6732036334        6.2941186135
  H        52.0133178150       21.7019923648        9.4958079110
  H        49.0695247468       18.6082140878        5.2030878099
  H        13.2481006597       19.0165197981        7.9784003397
  H        29.9782817841       12.4669905945       12.2180415741
  H        28.9138585338       10.5459638712       13.4059621617
  H        25.2790457839       11.1985626580       11.2018716711
  H        26.3551960422       13.1186152006       10.0191902281
  H        27.1733528266       11.6877270479       14.7865674135
  H        30.9900940729       22.7366049267       12.0226508990
  H        31.9742428195       24.6193801664       13.3206166863
  H        35.6556456762       24.1908548051       11.1347663357
  H        34.6488224506       22.3169733213        9.8238549639
  H        33.6291019295       23.5922601392       14.7527497821
  H        25.7471534314        8.5927026098       11.3986443240
  H        30.8358989216       22.6558003747        3.7850841597
  H        31.8485516557       24.5544986370        2.5365288707
  H        35.4060944865       24.2325716559        4.9366175861
  H        34.3685775534       22.3511207971        6.2038058172
  H        33.5649258183       23.5896721871        1.1922231669
  H        40.6184081779       17.1719730014        4.6231072112
  H        32.5155387293       14.1781717537        8.1718588986
  H        29.8463354737       12.6096553082        3.8711616557
  H        28.8333786441       10.6880849249        2.6405888325
  H        25.1890378239       11.1934021771        4.8689520800
  H        26.2256835057       13.0946088715        6.1142101896
  H        27.1405281021       11.7160243608        1.2306234140
  H        33.3468467147       14.3350109050        6.3853747998
  H        33.4084365401       14.3966461523        9.5187899359
  H        32.0359980236       18.5845572760        5.0323799156
  H        30.2355453841       14.2002921396        8.0267366675
  H        16.1185871114        2.9634285416       12.1298849707
  H        14.9536010913        4.8205261611       13.3226295518
  H        17.3660940749        7.6860189669       11.2096211020
  H        18.5146661109        5.8184290348       10.0097729189
  H        16.7536994479        5.7396030845       14.7715516674
  H        44.8277318755       32.1402362867       11.9770372334
  H        45.9370176362       30.3414079166       13.3064875111
  H        43.6821726546       27.3781395373       11.1524509483
  H        42.5994519213       29.1899188299        9.8098091510
  H        44.2300513887       29.4365485167       14.7690028155
  H        14.8515734168        8.5465717076       11.3633391825
  H        44.8999442701       32.2340136708        3.9320113473
  H        46.0248690154       30.4130244511        2.6524955375
  H        43.7633333817       27.4840460533        4.8452370408
  H        42.6453787509       29.3176408556        6.1242027597
  H        44.2683242672       29.4703275118        1.2182690841
  H        34.9261510387       26.6674322654        4.6356122256
  H        36.6050325266       35.1340792273        8.1806695006
  H        16.1440223126        3.0130866994        3.9040488483
  H        14.9745690053        4.8564018872        2.6882493133
  H        17.3960043256        7.7473936895        4.7556203686
  H        18.5429383812        5.8934825156        5.9833920544
  H        16.7648049205        5.7555223090        1.2192696930
  H        36.2786932364       34.4824186797        6.2732313832
  H        36.3804202411       34.2093585306        9.4997771079
  H        40.5784829726       33.2016411166        5.1542996989
  H        17.4714883615        1.9469480642        7.9741491815
  H        29.0829609751       19.1941829147       12.5031400796
  H        32.2182124127       15.8114209094        3.6256112431
  H        31.6800645944       15.7127341151       12.5226600943
  H        28.1210589054       17.4865671444       14.4062648381
  H        29.5511889560       15.0834519303       13.5307261078
  H        31.5355854662       18.7773893362        1.1428371339
  H        28.7253838917       15.4113266069        1.8647655390
  H        30.8793178265       19.7278033101       14.0994941594
  H        18.8528958353        0.8689284217       12.3352412618
  H        40.5278234232       35.2291422384        3.9520711608
  H        42.3239640394       34.4186497037        3.5911466745
  H        22.0879284042        0.6921017277       12.3514008810
  H        11.5968640664       18.7131551732       12.3825422426
  H        52.2650482612       18.4313228030        3.6766888250
  H        49.2551919528       16.4770182315        3.5847530836
  H        10.1501863565       15.7982920547       12.2932242960
  H        50.8504374988       17.6921998337        3.9542222799
  H        10.0462806878       17.3946589138       12.0519559291
  H        20.2139180406        0.0021761889       12.0421809298
  H        39.1835192799       36.1243988954        3.6863608471
 Ni        30.5694752100       16.8595458843        2.2560680517
 Ni        29.4681079665       15.9769099007       -0.2410735697
 Ni        29.8818145691       18.3219114839       -0.3336678069
 Ni        30.1341211515       17.3098228362       13.1476301020
  O        10.6500377516       14.3651250037        5.4859042457
  O        12.6133225461       14.6576930420        6.5838923130
  O        49.1481082026       16.8458259366        7.9897075636
  O        50.3503881269       20.9353565671        5.6477701395
  O        48.3486845772       20.5933222207        6.6658168374
  O        11.0520418118       17.0535236414        6.5008293080
  O        50.3211231570       20.8816414247       10.4067854356
  O        48.3468158719       20.5867541098        9.3271205128
  O        49.5445270867       18.2484345026       10.0680094805
  O        12.3596783057       18.6245090587        7.9994688187