     566
 i =      107, E =     -4712.2140213281
  C        11.8580245726       14.0536183374        5.7416297518
  C        12.4554557856       12.8902935245        5.0233335645
  C        11.7041059914       12.1723214007        4.0807252190
  C        12.2803138991       11.1100103200        3.3883149571
  C        13.6204194271       10.7391139555        3.6169624523
  C        14.3531355972       11.4415867398        4.5915841163
  C        13.7803640542       12.5066005132        5.2831570501
  C        14.2600280762        9.6484984124        2.8435405887
  C        14.2556833486        9.6564793077        1.4218108428
  C        13.7426571350       10.7586057422        0.6678043810
  C        49.1260181463       21.2334796827        5.8798394731
  C        48.5490086941       22.4010951596        5.1526041343
  C        49.2993981291       23.0691363415        4.1723544573
  C        48.7323960980       24.1081261000        3.4390551285
  C        47.4014785363       24.5089211569        3.6669315297
  C        46.6700094344       23.8591171675        4.6794425372
  C        47.2325093970       22.8142706831        5.4088679536
  C        46.7714547810       25.5867296326        2.8696337726
  C        46.7608204403       25.5572810797        1.4478747400
  C        47.2606936472       24.4421033656        0.7044728582
  C        14.8596614223        8.5701123635        0.7085861333
  C        14.8906126982        8.5964075530        3.5201920508
  C        49.1124931875       21.2032891856       10.1451608288
  C        48.5269642824       22.3643940246       10.8725079645
  C        49.2664656923       23.0257613009       11.8647883000
  C        48.6900366848       24.0602044530       12.5962946097
  C        47.3592880540       24.4562135994       12.3586833157
  C        46.6384574589       23.8104435891       11.3360261545
  C        47.2120809907       22.7745724670       10.6042311865
  C        46.7210030797       25.5313454603       13.1496213083
  C        46.7330567644       25.5279742169       14.5713148944
  C        47.2484275257       24.4287404124       15.3277107298
  C        40.6036537600       17.0799745899       15.3372603201
  C        40.6423387715       17.1528784659       12.5251787022
  C        11.8822695921       14.0864274629       10.2853012587
  C        12.4712732310       12.9099086036       10.9891747929
  C        11.7140162041       12.1777007813       11.9162366719
  C        12.2803056002       11.0950889754       12.5847362454
  C        13.6186229854       10.7201536162       12.3520239706
  C        14.3561500593       11.4344653878       11.3899218018
  C        13.7909963903       12.5157750705       10.7171968195
  C        14.2523475723        9.6235811891       13.1226256459
  C        14.2516086818        9.6438644053       14.5444961190
  C        13.7419664458       10.7529411745       15.2915421957
  C        22.5194836425        3.2472331209        5.7546601710
  C        23.2506984478        4.3510907557        5.0621361751
  C        24.2561301572        4.0643380623        4.1260793831
  C        24.9006767731        5.0978723801        3.4494864097
  C        24.5584228300        6.4445028281        3.6864023466
  C        23.5813843209        6.7229458661        4.6603170981
  C        22.9321923906        5.6907190383        5.3357775029
  C        25.1772082283        7.5450907013        2.9063007656
  C        25.1396495906        7.5359163915        1.4830739677
  C        24.4269016877        6.5396485532        0.7441397786
  C        38.2967779874       31.9271694913        5.8527437832
  C        37.5537052595       30.8383156807        5.1550033090
  C        36.5895846786       31.1434025436        4.1813336790
  C        35.9596673153       30.1243439969        3.4722083294
  C        36.2774777438       28.7726758951        3.7124163932
  C        37.2093873372       28.4754764916        4.7253651155
  C        37.8435392613       29.4933826191        5.4339425991
  C        35.6714461104       27.6831901323        2.9126031674
  C        35.7106741287       27.7003929863        1.4893939165
  C        36.4195156150       28.7032859868        0.7576638475
  C        25.7624287848        8.6014599396        0.7549701865
  C        25.7925699050        8.6157856039        3.5675045924
  C        38.3302033225       31.9601171410       10.1610043620
  C        37.6147123360       30.8876337076       10.9103848778
  C        36.6853524967       31.1960524300       11.9163957652
  C        36.0779710444       30.1787483175       12.6503686762
  C        36.3831720726       28.8245027588       12.4035946552
  C        37.2928140785       28.5264565301       11.3694883881
  C        37.9024415695       29.5401320942       10.6368129048
  C        35.7714552969       27.7251492358       13.1857703955
  C        35.7612123993       27.7221022608       14.6099551776
  C        36.4421542620       28.7149640660       15.3800399551
  C        46.1352814122       26.6207851995       15.2813686078
  C        46.0869296638       26.5795646479       12.4734900243
  C        22.4614596237        3.2549375018       10.2591761314
  C        23.1585865513        4.3599508102       10.9862006267
  C        24.1574392939        4.0656890903       11.9281283480
  C        24.7913559355        5.0897420695       12.6276943220
  C        24.4474242951        6.4385166443       12.4074662910
  C        23.4700379017        6.7259192039       11.4355372429
  C        22.8312567585        5.7019128263       10.7366846464
  C        25.0898448511        7.5322118909       13.1783202698
  C        25.0953638116        7.5283389366       14.6021947492
  C        24.4041789269        6.5367684549       15.3666639785
  C        26.5418033688       17.8273938096        5.7861493160
  C        25.2468150227       17.8849487151        5.0656725959
  C        25.0075702455       18.8814265116        4.1047796203
  C        23.8021832032       18.9091164398        3.4103997301
  C        22.8026451219       17.9454392164        3.6550991175
  C        23.0366167963       16.9750581544        4.6480273627
  C        24.2438319507       16.9399336027        5.3402321257
  C        21.5402545965       17.9371201993        2.8816422989
  C        21.5509581360       17.9312762082        1.4595373049
  C        22.7607278842       17.8097721398        0.7061575091
  C        34.3300055304       17.1702761267        5.8612456136
  C        35.6156867997       17.0713020413        5.1358876440
  C        35.7916141963       16.1649661753        4.0736486950
  C        36.9894609002       16.1345122275        3.3641385090
  C        38.0544061720       17.0063239398        3.6837731244
  C        37.8795137101       17.8818562313        4.7772313255
  C        36.6837200890       17.9203084726        5.4855150213
  C        39.3164619053       17.0274170289        2.9106665068
  C        39.3273801390       17.0660616062        1.4842299961
  C        38.1323950250       17.2165543074        0.7161649243
  C        20.3084468554       17.9579107327        0.7456842029
  C        20.3132596036       17.9295941111        3.5580632590
  C        34.4548185761       17.1921462976       10.1833430266
  C        35.7505146317       17.1207613125       10.9056356427
  C        35.9635157816       16.1546354428       11.9026594541
  C        37.1511604401       16.1439151046       12.6275860048
  C        38.1615158194       17.0956896527       12.3790578186
  C        37.9553033789       18.0324499654       11.3468242111
  C        36.7649346447       18.0515723935       10.6255792677
  C        39.4052566702       17.1220710265       13.1795922741
  C        39.3719940650       17.1148594817       14.6037432026
  C        38.1527685453       17.2364486693       15.3380130486
  C        35.1252014029       26.6420581337       15.3094849575
  C        35.1945335753       26.6491988167       12.4985975316
  C        26.5527665385       17.8471905200       10.3160584676
  C        25.2398253868       17.9034047588       11.0107013970
  C        24.9926188484       18.8992288850       11.9687443024
  C        23.7784160200       18.9287505752       12.6467994875
  C        22.7842122222       17.9633343888       12.3903948295
  C        23.0261707131       16.9944811042       11.3993846122
  C        24.2408657830       16.9612295676       10.7194705848
  C        21.5222481090       17.9475893831       13.1619414098
  C        21.5415081014       17.9352981542       14.5831312953
  C        22.7558402878       17.8117415639       15.3297003215
  C        14.0442491437       17.8333729564       10.2825501913
  C        15.3516854555       17.9021580657       10.9984527424
  C        15.6098271827       18.9215073655       11.9275572302
  C        16.8204990283       18.9531515757       12.6156902681
  C        17.8032405286       17.9680045252       12.3949123030
  C        17.5511842533       16.9738424544       11.4314657519
  C        16.3400626658       16.9381825759       10.7444456090
  C        19.0686264967       17.9563535685       13.1663174517
  C        19.0600194980       17.9519471244       14.5880165707
  C        17.8480728795       17.8539277475       15.3409093026
  C        46.8015330413       17.2213821733       10.1646539295
  C        45.5150277608       17.1638193958       10.9180846187
  C        45.3163819326       16.1972728837       11.9174128213
  C        44.1377286164       16.1800356956       12.6592304584
  C        43.1203067311       17.1277152730       12.4264368420
  C        43.3182651246       18.0752085276       11.4018819437
  C        44.4982458389       18.0975896837       10.6617145330
  C        41.8631576406       17.1309361353       13.2113938320
  C        41.8567095197       17.1081707276       14.6368469888
  C        43.0559840062       17.1991973191       15.4072833080
  C        20.3031381848       17.9589851727       15.3016506369
  C        20.2940360772       17.9369142868       12.4893191152
  C        46.7740091364       17.2257143067        5.8910161447
  C        45.4602813075       17.1027909177        5.1909354147
  C        45.2404507553       16.1032419854        4.2290464060
  C        44.0438853467       16.0598063974        3.5158296699
  C        43.0278411759       17.0105023483        3.7433706101
  C        43.2372688962       17.9762553557        4.7472832286
  C        44.4360561036       18.0274717191        5.4551174190
  C        41.7789025621       17.0240055257        2.9428507641
  C        41.8136700110       17.0517143357        1.5176579390
  C        43.0347619373       17.1712297980        0.7860404410
  C        46.1530494792       26.6372771363        0.7261096898
  C        46.1614096588       26.6557710126        3.5357538827
  C        14.0380221578       17.8279954100        5.7063702860
  C        15.3512017967       17.8970657590        5.0041226102
  C        15.6212640547       18.9235623882        4.0874426733
  C        16.8443066217       18.9620163049        3.4230809840
  C        17.8205501531       17.9726006700        3.6518189474
  C        17.5558362893       16.9710103194        4.6028013959
  C        16.3351275719       16.9326404828        5.2712475672
  C        19.0864902058       17.9564519658        2.8847266610
  C        19.0694662435       17.9513308539        1.4635162828
  C        17.8528360687       17.8534839883        0.7173301146
  C        28.8150411748       14.0596505333       10.3568850407
  C        28.2203058317       12.8803308951       11.0378090798
  C        28.9459464853       12.1567231294       11.9971486233
  C        28.3517731628       11.0866700255       12.6606109135
  C        27.0187826014       10.7131427303       12.3898857463
  C        26.3180304670       11.4144171808       11.3911005554
  C        26.9075367804       12.4864650289       10.7275614842
  C        26.3521750541        9.6394801820       13.1611542706
  C        26.3486299543        9.6702217036       14.5828380197
  C        26.8477589903       10.7887136059       15.3210373442
  C        32.1932345701       21.2401609368       10.1496449776
  C        32.7897158580       22.3943987083       10.8727404983
  C        32.0448664710       23.0659828016       11.8562070784
  C        32.6151478533       24.1059211566       12.5822232896
  C        33.9464725157       24.5053529110       12.3498340146
  C        34.6725164559       23.8524088688       11.3345540705
  C        34.1058577301       22.8064210818       10.6092276145
  C        34.5716409860       25.5803339291       13.1528139004
  C        34.5468651186       25.5541805369       14.5761745622
  C        34.0406042620       24.4369434127       15.3105061038
  C        25.7435669812        8.5943992551       15.3095025634
  C        25.7052752980        8.5897819874       12.4954796460
  C        32.0716516483       21.1947830994        5.8731544154
  C        32.6428238693       22.3526433195        5.1348069896
  C        31.9247643170       22.9786090207        4.1023369838
  C        32.5001813911       24.0186236549        3.3757348108
  C        33.8076225148       24.4663657997        3.6579669644
  C        34.5038223440       23.8546940857        4.7200913981
  C        33.9357167989       22.8101552794        5.4423131487
  C        34.4519846975       25.5486872071        2.8792380930
  C        34.4852118345       25.5385623768        1.4550781574
  C        34.0103436926       24.4298634902        0.6880319513
  C        40.5808989738       17.0524636816        0.7842213931
  C        40.5413103781       17.0294587162        3.5964177204
  C        28.7642277613       14.1220220961        5.7537406920
  C        28.1944905018       12.9634834147        5.0250052367
  C        28.9162777631       12.3074582035        4.0132336058
  C        28.3529333751       11.2259862892        3.3399683046
  C        27.0504564364       10.7728107918        3.6430524414
  C        26.3517204411       11.4159690245        4.6837987191
  C        26.9114067580       12.4936853010        5.3619363732
  C        26.4063380400        9.6760583155        2.8826658041
  C        26.3755448351        9.6896840610        1.4594754805
  C        26.8560103515       10.8001442006        0.6971029806
  C        18.1354952844        3.1806164626       10.3169103271
  C        17.4058008517        4.2778372748       11.0154557136
  C        16.3906801855        3.9991286958       11.9435105914
  C        15.7426501449        5.0388640817       12.6071254103
  C        16.0936099400        6.3827432656       12.3670036097
  C        17.0822364027        6.6525799217       11.4025331726
  C        17.7316479310        5.6154815610       10.7373896694
  C        15.4691157971        7.4903355195       13.1300756016
  C        15.4847504175        7.4899181929       14.5518000111
  C        16.1864673961        6.4964663354       15.3050394621
  C        42.9457532492       31.8592687660       10.0727841182
  C        43.6459698777       30.7716625050       10.8166898041
  C        44.5917551916       31.0928644502       11.8025782771
  C        45.1973346777       30.0872375724       12.5501873866
  C        44.8705872621       28.7342090102       12.3354836118
  C        43.9444707935       28.4200013312       11.3224936415
  C        43.3357638877       29.4252134766       10.5744765354
  C        45.4880985441       27.6549301344       13.1387175040
  C        45.4925924048       27.6808804631       14.5603993968
  C        44.8056093228       28.6890344140       15.3069764217
  C        14.8557914816        8.5624641450       15.2641182936
  C        14.8733629148        8.5618323327       12.4514597416
  C        42.9463157087       31.9613882834        5.8089708903
  C        43.6913191948       30.8853754647        5.0953759541
  C        44.6562139607       31.1912399680        4.1233267289
  C        45.2776066852       30.1716294016        3.4055716906
  C        44.9534455411       28.8213268122        3.6428931947
  C        44.0195747345       28.5237009542        4.6533271146
  C        43.3914071779       29.5404864610        5.3655367369
  C        45.5625097360       27.7239660631        2.8576581809
  C        45.5331379690       27.7174835073        1.4363619101
  C        44.8269033784       28.7077415972        0.6833692606
  C        35.0964892952       26.6325465879        0.7555516937
  C        35.0605924773       26.6075897932        3.5668918175
  C        18.1486317646        3.2467098189        5.7067870482
  C        17.4296089686        4.3436032967        4.9977343316
  C        16.4148662610        4.0521112688        4.0737219136
  C        15.7663581213        5.0825716929        3.3982236811
  C        16.1202810625        6.4279482211        3.6212771084
  C        17.1109836886        6.7115255954        4.5791976180
  C        17.7588750664        5.6827828253        5.2590495848
  C        15.4897530475        7.5235730418        2.8487034062
  C        15.4958949793        7.5070338590        1.4275447429
  C        16.1927310691        6.5053714008        0.6808607723
  H        10.6723316268       12.4673297091        3.9029939901
  H        11.6941162488       10.5522735067        2.6611244740
  H        15.3897003642       11.1658812301        4.7742964241
  H        14.3492839093       13.0688513238        6.0197618193
  H        13.3755548851       11.6307306564        1.2010529536
  H        50.3223691925       22.7496294435        3.9882195501
  H        49.3189814022       24.6238866658        2.6818983895
  H        45.6400314499       24.1588327146        4.8616146681
  H        46.6609589592       22.2880313595        6.1698810275
  H        47.6288058391       23.5755809163        1.2462255043
  H        14.8704636742        8.5874274806        4.6084903184
  H        50.2867472258       22.7033986871       12.0592127791
  H        49.2684864759       24.5761109934       13.3594440038
  H        45.6086354688       24.1067520317       11.1477798681
  H        46.6508216364       22.2515272936        9.8335736168
  H        47.6067865072       23.5514242738       14.7968444067
  H        40.6571426391       17.1327565212       11.4370105784
  H        48.6861387085       14.0953504881        7.7995949051
  H        10.6809259008       12.4677231895       12.0943812227
  H        11.6885558282       10.5255177113       13.2981319382
  H        15.3910696978       11.1553674163       11.2029594155
  H        14.3628803683       13.0841514755        9.9875335105
  H        13.3749404531       11.6214444034       14.7528593760
  H        47.9294011289       14.2190746877        9.7105319613
  H        47.7798972079       14.3744867326        6.4939937496
  H        49.0805708598       18.5516440702       10.8665372633
  H        10.4143025284       14.1345583390        7.9985927795
  H        24.5105912964        3.0237016434        3.9372824868
  H        25.6781994849        4.8702125362        2.7233708472
  H        23.3060268301        7.7579965414        4.8521893978
  H        22.1564328488        5.9009338962        6.0682795834
  H        23.8671041870        5.7858018049        1.2900200816
  H        36.3590288197       32.1871743614        3.9815148275
  H        35.2137590571       30.3666475052        2.7183953304
  H        37.4635810646       27.4355817223        4.9201294047
  H        38.5890876769       29.2689836317        6.1931837553
  H        36.9783908246       29.4548288521        1.3075001449
  H        25.8387046954        8.5987230430        4.6550173895
  H        36.4582997576       32.2401191303       12.1199874208
  H        35.3510829554       30.4262786994       13.4208174527
  H        37.5439370951       27.4865098036       11.1714245811
  H        38.6255101387       29.3118426349        9.8575090001
  H        37.0191995004       29.4749687920       14.8611442615
  H        46.1078730751       26.5865556382       11.3854422700
  H        44.6678744509       35.1157963453        7.8139746504
  H        24.4284004439        3.0252875801       12.0928063501
  H        25.5704577036        4.8534576755       13.3493231801
  H        23.1916250428        7.7625959804       11.2572075780
  H        22.0615287041        5.9216117414       10.0003562258
  H        23.8260661271        5.7815227472       14.8420565448
  H        44.9524668304       34.3892246549        9.6943313096
  H        44.8999949812       34.2061352778        6.4905597322
  H        40.6650564148       33.2082246532       10.8526492612
  H        23.1514873080        1.9568584608        8.0059309903
  H        25.7758189816       19.6280425520        3.9174039726
  H        23.6182793425       19.6854237109        2.6709437720
  H        22.2739201727       16.2240085599        4.8429997300
  H        24.4381950394       16.1749024707        6.0879283902
  H        23.6990690722       17.6796839314        1.2376614278
  H        34.9730788365       15.5002656785        3.8061378217
  H        37.1148965089       15.4218077831        2.5521532674
  H        38.6840351731       18.5662043192        5.0385141150
  H        36.5448809361       18.6196429368        6.3063627790
  H        37.1887732336       17.3529127478        1.2360459763
  H        20.3136653562       17.9569918724        4.6462366024
  H        35.1801814643       15.4294905785       12.1097254405
  H        37.3104662446       15.3930487565       13.3982322096
  H        38.7255129046       18.7742394837       11.1458415172
  H        36.5896784272       18.7964540623        9.8529383912
  H        37.2251308271       17.3849937758       14.7929310027
  H        35.1801219237       26.6731176933       11.4105411297
  H        28.5012642060       21.1251562844        7.8623280741
  H        25.7647974183       19.6395695443       12.1651560536
  H        23.5846665397       19.7035923609       13.3852780345
  H        22.2652424327       16.2435881049       11.1970260708
  H        24.4445064595       16.1988815882        9.9715115082
  H        23.6905525035       17.6836332265       14.7920490523
  H        29.0054117337       21.8188587430        9.7397864967
  H        29.1886088198       21.7008453953        6.5187650889
  H        32.0276767247       18.5234306844       10.9489932631
  H        27.3665001310       19.0055969884        8.1080983491
  H        14.8505352501       19.6819744939       12.0954176719
  H        17.0193832334       19.7473289543       13.3321184539
  H        18.3020571663       16.2064850314       11.2547572658
  H        16.1297111418       16.1583762128       10.0163832517
  H        16.9083094088       17.7461001954       14.8073146852
  H        46.1032328964       15.4705369712       12.1056751015
  H        43.9888708008       15.4197847991       13.4228525770
  H        42.5457321967       18.8182864751       11.2149172037
  H        44.6612450833       18.8450379215        9.8886557151
  H        44.0022838346       17.3264544750       14.8893776045
  H        20.2918201016       17.9670106163       11.4012205422
  H        46.0245181320       15.3736235853        4.0392074506
  H        43.8848185380       15.2843790368        2.7695391797
  H        42.4631213234       18.7174815881        4.9351811182
  H        44.6115215519       18.7963856427        6.2037698884
  H        43.9653315819       17.2757949001        1.3362318494
  H        46.1977313592       26.6819875663        4.6232232595
  H        52.7405527392       21.0624039967        8.1944889371
  H        14.8634388953       19.6844636178        3.9146426835
  H        17.0572453652       19.7612856302        2.7164745360
  H        18.3030269682       16.2007143165        4.7821313875
  H        16.1122288105       16.1497756694        5.9921102682
  H        16.9165472865       17.7452881361        1.2566798535
  H        52.3207660924       21.6730662290        6.2952632885
  H        52.0121257593       21.7015162835        9.4952982436
  H        49.0630844693       18.6058463560        5.2053358750
  H        13.2459389764       19.0173933760        7.9755103527
  H        29.9705159185       12.4506368085       12.2137881980
  H        28.9152750346       10.5277934449       13.4045481156
  H        25.2888990194       11.1366992777       11.1729385380
  H        26.3580288907       13.0508481868        9.9784060870
  H        27.1954229038       11.6623161084       14.7778969862
  H        31.0231631133       22.7480189023       12.0483490439
  H        32.0320117043       24.6237411737       13.3404578144
  H        35.7024962421       24.1493824089       11.1478414049
  H        34.6753702041       22.2801714247        9.8466949195
  H        33.7021468335       23.5611037454       14.7645146952
  H        25.7268474408        8.5663675159       11.4073481251
  H        30.9220610132       22.6261687099        3.8707299702
  H        31.9347699193       24.5013587947        2.5817137823
  H        35.5154734692       24.1845979980        4.9470213617
  H        34.4856937126       22.3186371117        6.2411225169
  H        33.6488362533       23.5483039866        1.2095939378
  H        40.5290747896       16.9773220027        4.6836766818
  H        32.5399774898       14.0945399395        8.2079660799
  H        29.9171332480       12.6569731908        3.7694225214
  H        28.9236578250       10.7148688921        2.5678450455
  H        25.3449027487       11.0838463163        4.9283221214
  H        26.3607286260       13.0016807840        6.1493466757
  H        27.2067939972       11.6844145851        1.2207348425
  H        33.2790915547       14.1860176816        6.4150111720
  H        33.4583085348       14.2557349670        9.5950286224
  H        31.9996178102       18.4554133930        5.0608233041
  H        30.1930812400       14.1509432652        8.1396813347
  H        16.1193338880        2.9624939899       12.1302571586
  H        14.9536379769        4.8191136607       13.3231578416
  H        17.3636834341        7.6856167502       11.2088642196
  H        18.5130241692        5.8183086936       10.0088789790
  H        16.7529191500        5.7390204584       14.7715782568
  H        44.8282305464       32.1399028052       11.9767103400
  H        45.9373025333       30.3408090511       13.3060857165
  H        43.6813806255       27.3779957641       11.1525933117
  H        42.5988638718       29.1899051077        9.8100759816
  H        44.2300409847       29.4366380598       14.7686760329
  H        14.8490668330        8.5446710314       11.3632551892
  H        44.8999915882       32.2338943851        3.9320692357
  H        46.0246430964       30.4127346999        2.6524315921
  H        43.7620835962       27.4840229225        4.8444740886
  H        42.6444786874       29.3176347472        6.1235432002
  H        44.2682020464       29.4705241829        1.2178994905
  H        35.0101886250       26.6208704629        4.6540816344
  H        36.6050871718       35.1338200713        8.1809065873
  H        16.1443303792        3.0124373922        3.9036847343
  H        14.9744085201        4.8554244920        2.6878124037
  H        17.3937044978        7.7471213958        4.7565791433
  H        18.5412117321        5.8933671625        5.9843556987
  H        16.7640787758        5.7550810359        1.2193215112
  H        36.2793760686       34.4815209899        6.2735983828
  H        36.3820964044       34.2085368197        9.4998975203
  H        40.5779369149       33.2011837319        5.1546284669
  H        17.4715967049        1.9468632637        7.9740496839
  H        29.1483349598       19.3760061881       12.4945032076
  H        28.6465287228       18.6391212611        3.8740863987
  H        31.3884795214       15.6670824839       12.5522275979
  H        27.9259084143       17.8613456195       14.1377039332
  H        29.5933219952       15.5446101418       14.5634432674
  H        32.4728215152       17.7915366990        1.4616520135
  H        18.8532097598        0.8688158625       12.3352584625
  H        40.5276713659       35.2292905376        3.9522207542
  H        42.3226913644       34.4173354212        3.5919660529
  H        22.0878508812        0.6925520084       12.3508646695
  H        11.5968928043       18.7129240431       12.3818212122
  H        52.2642909563       18.4305505343        3.6781433914
  H        49.2544774991       16.4775726554        3.5848674688
  H        10.1510275402       15.7982449369       12.2919030896
  H        50.8489797593       17.6926704114        3.9542595723
  H        10.0458625744       17.3946594481       12.0519949505
  H        20.2143939936        0.0021326008       12.0421341791
  H        39.1833171058       36.1243040519        3.6863832137
 Ni        30.5672747780       17.8324855923        2.8281931114
 Ni        30.9929146981       16.6594865550        0.0811702622
 Ni        29.2052297121       17.9524347305        0.2482126701
 Ni        29.9758410103       17.3551476100       13.0008913454
  O        10.6496014995       14.3652302727        5.4856786186
  O        12.6129618594       14.6574301062        6.5838032630
  O        49.1472204449       16.8460884536        7.9894482219
  O        50.3498630195       20.9368012987        5.6484933901
  O        48.3482637516       20.5932782641        6.6660008026
  O        11.0502211332       17.0542397116        6.5003067936
  O        50.3205947195       20.8817616549       10.4067670556
  O        48.3465325350       20.5866652309        9.3268590700
  O        49.5427231114       18.2484581767       10.0683073832
  O        12.3581382102       18.6244766898        7.9996486747
  O        48.6929047437       14.1488815164        6.7510337781
  O         8.2094556108       14.2105163569        9.3227046708