     566
 i =      150, E =     -4712.2589845828
  C        11.8585867565       14.0535469806        5.7415498115
  C        12.4560447594       12.8905707470        5.0232929436
  C        11.7043972550       12.1716589487        4.0815710177
  C        12.2807808896       11.1094290203        3.3892548776
  C        13.6213358001       10.7395608544        3.6170425809
  C        14.3544419902       11.4430968999        4.5905945641
  C        13.7815476775       12.5080828633        5.2820829664
  C        14.2609094704        9.6488878270        2.8436628468
  C        14.2562399199        9.6567910492        1.4219565918
  C        13.7430203879       10.7588702087        0.6680222207
  C        49.1267240561       21.2331923923        5.8797215868
  C        48.5499912799       22.4011646777        5.1527343821
  C        49.3000462537       23.0684752095        4.1717311942
  C        48.7331686984       24.1076507451        3.4385431234
  C        47.4026545052       24.5093980037        3.6671791858
  C        46.6716981789       23.8605537025        4.6807203793
  C        47.2340789269       22.8155944191        5.4100596098
  C        46.7724546405       25.5871141123        2.8698686105
  C        46.7614314054       25.5574595786        1.4480969714
  C        47.2613384074       24.4423477497        0.7046088818
  C        14.8603034331        8.5705066966        0.7087031372
  C        14.8917718434        8.5969846401        3.5203233255
  C        49.1130320005       21.2033336348       10.1452688127
  C        48.5276158259       22.3646466089       10.8724547408
  C        49.2668715893       23.0254037797       11.8653388064
  C        48.6905616279       24.0599470456       12.5968322930
  C        47.3601285610       24.4567221741       12.3586710769
  C        46.6397053859       23.8117994590       11.3351522031
  C        47.2132307875       22.7758950810       10.6033285857
  C        46.7217229338       25.5317349318       13.1497072826
  C        46.7335346033       25.5281597874       14.5714217368
  C        47.2490160998       24.4289934709       15.3278424301
  C        40.6107383725       17.0573851996       15.3192103550
  C        40.6337300384       17.0964042893       12.5090139941
  C        11.8829410031       14.0864907332       10.2855246391
  C        12.4722623452       12.9106657737       10.9896761654
  C        11.7148417033       12.1774752273       11.9158910332
  C        12.2814979905       11.0950304926       12.5842760772
  C        13.6203198692       10.7212851118       12.3524000342
  C        14.3581612555       11.4368095958       11.3914493925
  C        13.7926751805       12.5179567291       10.7187695764
  C        14.2540207485        9.6245881898       13.1228383306
  C        14.2525983786        9.6445004124       14.5446879217
  C        13.7425628927       10.7533716208       15.2917672153
  C        22.5236490490        3.2500710232        5.7567611766
  C        23.2602914301        4.3569455808        5.0731499194
  C        24.2733241015        4.0765990233        4.1430086664
  C        24.9204120121        5.1143329242        3.4742626747
  C        24.5743183657        6.4602510260        3.7116867041
  C        23.5911968697        6.7322059711        4.6813681395
  C        22.9395228708        5.6959808134        5.3492057464
  C        25.1884525859        7.5643554400        2.9295620050
  C        25.1341128867        7.5570827716        1.5071858094
  C        24.4170081163        6.5585263167        0.7736886217
  C        38.2980428844       31.9281375985        5.8524054682
  C        37.5560720089       30.8391958979        5.1519756591
  C        36.5887142702       31.1459312283        4.1824554464
  C        35.9581218334       30.1279362419        3.4721768345
  C        36.2797117775       28.7767767016        3.7078388986
  C        37.2162881537       28.4774108285        4.7153066664
  C        37.8506454232       29.4944014093        5.4252240458
  C        35.6701061708       27.6884191613        2.9086146026
  C        35.7098145020       27.7036256876        1.4868477006
  C        36.4212695705       28.7056921447        0.7542598331
  C        25.7440966069        8.6259660983        0.7735964119
  C        25.8110494395        8.6359771340        3.5856854873
  C        38.3306917711       31.9607847763       10.1608378367
  C        37.6144057465       30.8879175016       10.9115142778
  C        36.6802936148       31.1980525935       11.9121365501
  C        36.0701461802       30.1817520002       12.6456795760
  C        36.3789226352       28.8279656368       12.4034654468
  C        37.2944431779       28.5276806949       11.3758751080
  C        37.9062410910       29.5405342134       10.6432901803
  C        35.7631895569       27.7297428822       13.1855471400
  C        35.7568507908       27.7252124108       14.6083123130
  C        36.4422615778       28.7171181296       15.3776424795
  C        46.1355884235       26.6208442961       15.2815516770
  C        46.0877352915       26.5800815885       12.4736500065
  C        22.4579192165        3.2572204430       10.2647018061
  C        23.1429010710        4.3647856173       11.0003344677
  C        24.1345008162        4.0769777030       11.9522262719
  C        24.7577816923        5.1049498921       12.6564880253
  C        24.4109275583        6.4527788469       12.4327771133
  C        23.4389679396        6.7333250096       11.4529909688
  C        22.8111815475        5.7057447463       10.7490479196
  C        25.0483666840        7.5521473564       13.2020340033
  C        25.0614892806        7.5505854447       14.6257579825
  C        24.3810576155        6.5561172505       15.3969906299
  C        26.6075849416       17.8483722309        5.7856075916
  C        25.3027904586       17.8983343303        5.0658488637
  C        25.0475543117       18.8923362267        4.1070738133
  C        23.8365005785       18.9112985853        3.4189168351
  C        22.8442015425       17.9410887550        3.6671401201
  C        23.0952858686       16.9712109784        4.6565502223
  C        24.3083949965       16.9453905488        5.3422327025
  C        21.5732048606       17.9271883431        2.9000486553
  C        21.5758699444       17.9090850534        1.4773267498
  C        22.7821710875       17.7839328882        0.7183520527
  C        34.3757383109       17.2078899581        5.8698732162
  C        35.6686240132       17.1202637808        5.1349750137
  C        35.8618610109       16.1598802447        4.1287724385
  C        37.0555029168       16.1229376259        3.4116507340
  C        38.0883021579       17.0455266912        3.6745650227
  C        37.8969552958       17.9821058422        4.7095043185
  C        36.7042854357       18.0234523481        5.4265568933
  C        39.3485527919       17.0480730028        2.8943973468
  C        39.3483736277       17.0661227077        1.4714283410
  C        38.1442456798       17.1942190944        0.7100161525
  C        20.3300294724       17.9309254566        0.7672594815
  C        20.3476355623       17.9293994515        3.5808035707
  C        34.4380057523       17.2404354713       10.1893159196
  C        35.7399247785       17.1358615181       10.9089059880
  C        35.9381810855       16.1608828636       11.8983983232
  C        37.1297989900       16.1238306146       12.6185358814
  C        38.1519864284       17.0621867288       12.3735397045
  C        37.9590938999       18.0100686494       11.3503179184
  C        36.7679126598       18.0510738734       10.6314072355
  C        39.3998682211       17.0750503426       13.1705279350
  C        39.3747923785       17.0814341428       14.5926741045
  C        38.1566819970       17.1998134619       15.3332990301
  C        35.1184598796       26.6472847310       15.3082195390
  C        35.1795253702       26.6573579515       12.4983103864
  C        26.5720736155       17.8281876393       10.3259411604
  C        25.2593918053       17.8721572476       11.0338097694
  C        24.9987667400       18.8741620447       11.9811548853
  C        23.7811736894       18.9002987998       12.6553508409
  C        22.7948921272       17.9250027810       12.4054619936
  C        23.0505822095       16.9478094881       11.4264562668
  C        24.2689938671       16.9188709778       10.7509601612
  C        21.5306151963       17.9077969476       13.1771640295
  C        21.5534355984       17.8976417808       14.5987433346
  C        22.7707426408       17.7785119231       15.3418597334
  C        14.0470794317       17.8294320735       10.2885071663
  C        15.3522375408       17.8879826585       11.0128957166
  C        15.6094670810       18.8929730491       11.9585208168
  C        16.8188207415       18.9152357357       12.6508816710
  C        17.8054711332       17.9352902643       12.4200072293
  C        17.5531005474       16.9546404008       11.4420029442
  C        16.3432398901       16.9278787628       10.7511186653
  C        19.0743105890       17.9184089868       13.1898887107
  C        19.0719139124       17.9154583845       14.6124801425
  C        17.8639879810       17.8185735633       15.3724154212
  C        46.8021668869       17.2176966674       10.1601068217
  C        45.5110831428       17.1494786685       10.9069777095
  C        45.3102676992       16.1680347638       11.8905261667
  C        44.1280188907       16.1382639500       12.6262346961
  C        43.1134976606       17.0898429744       12.4022704193
  C        43.3123516182       18.0520484056       11.3930296134
  C        44.4954905477       18.0856106970       10.6578965108
  C        41.8574640262       17.0870870852       13.1897497853
  C        41.8592725697       17.0792240295       14.6127189318
  C        43.0652803300       17.1760942513       15.3758322527
  C        20.3180235409       17.9241634232       15.3221992095
  C        20.2992563150       17.8978153946       12.5090654437
  C        46.7796281726       17.2289756110        5.8884171657
  C        45.4722376251       17.1128109919        5.1759403705
  C        45.2549330216       16.1066201589        4.2215358686
  C        44.0636819663       16.0649587039        3.4997771311
  C        43.0555098307       17.0258257563        3.7130809569
  C        43.2634561373       18.0020261071        4.7061205216
  C        44.4562694964       18.0501611902        5.4231077594
  C        41.8064101152       17.0340011940        2.9146940697
  C        41.8331513248       17.0498619327        1.4923896628
  C        43.0529880790       17.1595396638        0.7528563401
  C        46.1534251369       26.6373335712        0.7263221126
  C        46.1625556517       26.6562883490        3.5359768692
  C        14.0445571013       17.8309540049        5.7084000038
  C        15.3646178719       17.9036784998        5.0165459553
  C        15.6393522194       18.9210876215        4.0906254831
  C        16.8680511741       18.9576053934        3.4353557979
  C        17.8489207551       17.9756067399        3.6802262355
  C        17.5807289546       16.9864652672        4.6437879891
  C        16.3542626586       16.9496832296        5.3028733983
  C        19.1164085782       17.9507735249        2.9121919482
  C        19.0940936178       17.9308121110        1.4906766532
  C        17.8748339323       17.8253224168        0.7486692871
  C        28.8022399439       14.0874570892       10.3958982513
  C        28.1899299812       12.9118452299       11.0768772770
  C        28.9063787562       12.1801633168       12.0358537000
  C        28.3056339297       11.1052229692       12.6856055108
  C        26.9729743148       10.7393555192       12.4056786847
  C        26.2793324698       11.4509124353       11.4098492570
  C        26.8784026800       12.5246772893       10.7556992070
  C        26.3028184986        9.6653552827       13.1752564863
  C        26.3041634509        9.6982082088       14.5967611929
  C        26.8073599891       10.8181558560       15.3314077128
  C        32.1785590744       21.2438734394       10.1492219230
  C        32.7760197557       22.4049668892       10.8695828497
  C        32.0240044382       23.0879791798       11.8384146051
  C        32.5932095547       24.1278523403       12.5668637810
  C        33.9304245080       24.5134808855       12.3493166350
  C        34.6651389321       23.8487118797       11.3491083127
  C        34.0985175088       22.8033687934       10.6217705652
  C        34.5559884091       25.5891503649       13.1532554365
  C        34.5333068169       25.5630221673       14.5753386217
  C        34.0172335921       24.4492383368       15.3102790831
  C        25.7097738265        8.6200865704       15.3281156548
  C        25.6580012339        8.6113523587       12.5144055563
  C        32.0798332024       21.1943208950        5.8707544123
  C        32.6467911911       22.3627782519        5.1393597901
  C        31.9172159791       23.0000518560        4.1231588601
  C        32.4890280082       24.0414765707        3.3946927069
  C        33.8043077811       24.4740092785        3.6588859901
  C        34.5131198401       23.8505355074        4.7047229100
  C        33.9470110371       22.8067198427        5.4307385986
  C        34.4460827489       25.5574263047        2.8769501780
  C        34.4760800897       25.5467710484        1.4541190365
  C        33.9891125165       24.4417728696        0.6870284919
  C        40.5971584341       17.0457636358        0.7651397131
  C        40.5725177162       17.0489008068        3.5762906422
  C        28.8326404914       14.1421890011        5.7593675586
  C        28.2427734040       12.9889946200        5.0154319535
  C        28.9551688858       12.3144229446        4.0113033645
  C        28.3768136435       11.2349541706        3.3428603921
  C        27.0686012597       10.8014303122        3.6465248622
  C        26.3758115377       11.4672614993        4.6759448384
  C        26.9513110186       12.5429181699        5.3475255367
  C        26.4133366272        9.6995593624        2.8953224694
  C        26.3630780819        9.7145017799        1.4732736546
  C        26.8332836253       10.8271335434        0.7068846258
  C        18.1357935766        3.1810273721       10.3169903781
  C        17.4066567665        4.2783456306       11.0157106933
  C        16.3905612399        4.0000407618       11.9428396034
  C        15.7428823356        5.0400311203       12.6063795858
  C        16.0952121653        6.3837207093       12.3671402973
  C        17.0850567955        6.6532052280       11.4038373666
  C        17.7341163153        5.6158500244       10.7387437552
  C        15.4707372509        7.4913891218       13.1301781378
  C        15.4857860736        7.4906110035       14.5519030741
  C        16.1872485769        6.4969553560       15.3051063046
  C        42.9458200043       31.8595957084       10.0728578463
  C        43.6461911029       30.7718823941       10.8168025320
  C        44.5917317048       31.0931908922       11.8028682020
  C        45.1974516705       30.0876378376       12.5505267299
  C        44.8710091498       28.7345705910       12.3356995184
  C        43.9451909869       28.4202411164       11.3224676884
  C        43.3363833848       29.4253896320       10.5744194109
  C        45.4885885635       27.6552590722       13.1389064618
  C        45.4928685962       27.6809551970       14.5606079209
  C        44.8059038848       28.6890827577       15.3072353831
  C        14.8566599715        8.5630246222       15.2642570775
  C        14.8754459681        8.5631443955       12.4515700794
  C        42.9465023437       31.9619271049        5.8089841308
  C        43.6918152620       30.8857823498        5.0955081029
  C        44.6564746494       31.1916720313        4.1232634174
  C        45.2780391076       30.1720760685        3.4055600275
  C        44.9542530626       28.8217507996        3.6431572774
  C        44.0207204879       28.5241031630        4.6539011018
  C        43.3924258334       29.5408732582        5.3660578114
  C        45.5632772910       27.7243020418        2.8579168650
  C        45.5335370240       27.7175510289        1.4366089697
  C        44.8272545812       28.7077893892        0.6836284468
  C        35.0918148755       26.6376573429        0.7538897872
  C        35.0555000798       26.6155408612        3.5642779448
  C        18.1489222723        3.2470542311        5.7066865841
  C        17.4302329303        4.3439221659        4.9975614176
  C        16.4148524577        4.0525995666        4.0741742575
  C        15.7665042099        5.0831740609        3.3987384983
  C        16.1212584771        6.4284232807        3.6212664839
  C        17.1127866797        6.7118611499        4.5783583536
  C        17.7605356815        5.6830013259        5.2581653190
  C        15.4906764588        7.5240712667        2.8487618364
  C        15.4965640280        7.5074316270        1.4276132457
  C        16.1933482067        6.5057324335        0.6809269049
  H        10.6722796299       12.4657846231        3.9044773411
  H        11.6944881435       10.5509550350        2.6627128527
  H        15.3914541323       11.1684705817        4.7723915728
  H        14.3510124089       13.0712428907        6.0175664591
  H        13.3758921975       11.6309563925        1.2013121672
  H        50.3227392922       22.7484118576        3.9869569778
  H        49.3196947462       24.6228998586        2.6809841845
  H        45.6422399636       24.1614144097        4.8639398289
  H        46.6630139919       22.2903930334        6.1721441264
  H        47.6299043297       23.5759831277        1.2462960803
  H        14.8721508761        8.5882547709        4.6086308509
  H        50.2869395745       22.7026062136       12.0602145209
  H        49.2690095255       24.5754350688       13.3602722037
  H        45.6103022280       24.1090501607       11.1460948575
  H        46.6523495488       22.2537383002        9.8318014605
  H        47.6077866443       23.5518468577       14.7969825002
  H        40.6427102728       17.0679700711       11.4210472562
  H        48.6869428258       14.0950839680        7.7999081847
  H        10.6813583661       12.4664654089       12.0933580571
  H        11.6897331510       10.5246089614       13.2969741123
  H        15.3935820400       11.1589426704       11.2054246327
  H        14.3649823093       13.0872806771        9.9901810339
  H        13.3756996923       11.6219745512       14.7531401736
  H        47.9301266966       14.2180270391        9.7109560468
  H        47.7799020579       14.3736357271        6.4950723897
  H        49.0828426317       18.5521801786       10.8669994402
  H        10.4157545822       14.1344493762        7.9987340444
  H        24.5317875226        3.0374929963        3.9510172205
  H        25.7018652172        4.8899933025        2.7512699401
  H        23.3122877226        7.7658171376        4.8759568421
  H        22.1591189675        5.9035806340        6.0775158142
  H        23.8657649049        5.8019194312        1.3243669702
  H        36.3559407627       32.1900132535        3.9868871094
  H        35.2090167046       30.3708978931        2.7217216168
  H        37.4728705947       27.4373079193        4.9057487518
  H        38.5992984346       29.2695742913        6.1812787474
  H        36.9817270916       29.4560160881        1.3041993036
  H        25.8690071478        8.6183517031        4.6727014269
  H        36.4512843550       32.2424493270       12.1118183198
  H        35.3390550698       30.4300448424       13.4119426671
  H        37.5474241528       27.4874154593       11.1818460449
  H        38.6333808283       29.3115664143        9.8679647188
  H        37.0197923626       29.4757572782       14.8571489471
  H        46.1090961993       26.5874418749       11.3856122841
  H        44.6683555291       35.1162179014        7.8138146799
  H        24.4102020449        3.0383720177       12.1205300374
  H        25.5327464581        4.8720668971       13.3836436808
  H        23.1572508090        7.7683772416       11.2703445269
  H        22.0470786042        5.9224733869       10.0060225308
  H        23.8009034183        5.7986273424       14.8777779495
  H        44.9541879709       34.3909948127        9.6955382992
  H        44.9011508253       34.2067377426        6.4904499024
  H        40.6664584479       33.2097588775       10.8533123185
  H        23.1512623118        1.9583439866        8.0075422145
  H        25.8079469144       19.6458252936        3.9146173807
  H        23.6443358087       19.6872110188        2.6810270180
  H        22.3408315507       16.2132736264        4.8572302205
  H        24.5128283849       16.1815374530        6.0888147571
  H        23.7232965443       17.6600703692        1.2464885798
  H        35.0622370746       15.4554079687        3.9117357976
  H        37.1997953374       15.3702961809        2.6396731493
  H        38.6834371581       18.7036477243        4.9207835735
  H        36.5453672144       18.7628678555        6.2079003062
  H        37.2025209385       17.3214638410        1.2360192279
  H        20.3526748235       17.9670736768        4.6687489961
  H        35.1403493627       15.4515633621       12.1062775603
  H        37.2786766259       15.3641395284       13.3826971701
  H        38.7396932443       18.7422104481       11.1541755905
  H        36.6009089478       18.8028393994        9.8638183095
  H        37.2246080532       17.3297351741       14.7909142844
  H        35.1635087667       26.6814297769       11.4103166063
  H        28.5098329283       21.0723337722        7.8785681629
  H        25.7621144743       19.6259954914       12.1691457857
  H        23.5786781494       19.6815595024       13.3847944090
  H        22.2976571721       16.1876769634       11.2283567391
  H        24.4820415832       16.1521148721       10.0100134051
  H        23.7028490545       17.6504069414       14.7997177946
  H        28.9943522868       21.7277407176        9.7472120418
  H        29.1683819895       21.7305800790        6.5531307325
  H        32.0423460517       18.5861015496       11.0065276134
  H        27.4010871657       19.0656532570        8.0788328477
  H        14.8510725781       19.6522809288       12.1358210983
  H        17.0141318943       19.7009122718       13.3775981487
  H        18.3041273695       16.1899145581       11.2545809418
  H        16.1371899895       16.1572955569       10.0120328722
  H        16.9217175330       17.7056172491       14.8441708092
  H        46.0979596148       15.4404706609       12.0716635730
  H        43.9756715371       15.3676837445       13.3788012346
  H        42.5391335736       18.7963936896       11.2141454631
  H        44.6617686743       18.8432330745        9.8955089891
  H        44.0081093076       17.2961165699       14.8497730932
  H        20.2943730806       17.9277899641       11.4209262381
  H        46.0358909214       15.3702847885        4.0456314104
  H        43.9024544034       15.2831300507        2.7606678052
  H        42.4928881302       18.7502929244        4.8800229112
  H        44.6336142967       18.8240517459        6.1660989139
  H        43.9864232179       17.2656968624        1.2980070746
  H        46.1994346800       26.6828801064        4.6234211423
  H        52.7411587520       21.0627109621        8.1946954623
  H        14.8803283892       19.6770045137        3.9015795319
  H        17.0809060766       19.7496961652        2.7206554870
  H        18.3295743880       16.2217952540        4.8397590052
  H        16.1315096030       16.1736462472        6.0311025272
  H        16.9406597354       17.7176059942        1.2916012371
  H        52.3227362414       21.6733696203        6.2942022623
  H        52.0135635851       21.7023604829        9.4957566276
  H        49.0664859842       18.6070591674        5.2043269344
  H        13.2472411855       19.0164240285        7.9772133175
  H        29.9292847601       12.4713934245       12.2633169489
  H        28.8635387508       10.5388383624       13.4280578252
  H        25.2497981411       11.1799605990       11.1849535576
  H        26.3380519939       13.0956636450       10.0047138546
  H        27.1485427616       11.6920574622       14.7847397119
  H        30.9972734477       22.7779609369       12.0168537033
  H        32.0044029409       24.6553879249       13.3140613854
  H        35.7002018355       24.1356825687       11.1752266988
  H        34.6730962585       22.2659289753        9.8709088281
  H        33.6678007287       23.5785745622       14.7627074588
  H        25.6773820379        8.5855494452       11.4262783329
  H        30.9086104874       22.6554895878        3.9050956493
  H        31.9152737473       24.5347502426        2.6131502711
  H        35.5308505958       24.1713279521        4.9170711483
  H        34.5039394195       22.3049294288        6.2184207249
  H        33.6180753830       23.5647028500        1.2095775124
  H        40.5641122959       17.0105722936        4.6640336504
  H        32.5208267640       14.1282292777        8.3653434525
  H        29.9631560861       12.6441123720        3.7687049596
  H        28.9423329822       10.7112197657        2.5751727899
  H        25.3634615302       11.1528591391        4.9213091093
  H        26.4077886957       13.0652865641        6.1307475637
  H        27.1919033695       11.7093444892        1.2288419453
  H        33.2834788278       14.1402823266        6.4257160492
  H        33.4035647946       14.4373410932        9.6773745701
  H        32.1794829730       18.4843784284        5.0963171875
  H        30.2089845184       14.1876394884        8.1335435803
  H        16.1181393929        2.9635696781       12.1288927770
  H        14.9531204788        4.8206737158       13.3217044979
  H        17.3679066344        7.6860411276       11.2111306639
  H        18.5165292633        5.8184921770       10.0112946563
  H        16.7538554008        5.7396382266       14.7716220684
  H        44.8280717641       32.1402645092       11.9770377867
  H        45.9373667305       30.3414181200       13.3064157990
  H        43.6825304786       27.3781687669       11.1523171835
  H        42.5998609949       29.1900518101        9.8096633047
  H        44.2306163600       29.4368998957       14.7689284397
  H        14.8518599671        8.5464258540       11.3633448264
  H        44.9000748001       32.2343427364        3.9318168304
  H        46.0250073721       30.4133361960        2.6523918119
  H        43.7637550325       27.4843773092        4.8454837607
  H        42.6459097432       29.3180686992        6.1244842951
  H        44.2688737019       29.4707817403        1.2181973474
  H        35.0061235728       26.6289373441        4.6514827798
  H        36.6053666729       35.1341200352        8.1809106287
  H        16.1436834141        3.0130236147        3.9045976215
  H        14.9740751787        4.8562700551        2.6887885087
  H        17.3964400075        7.7473209859        4.7550577118
  H        18.5436207870        5.8935340898        5.9826836155
  H        16.7647440294        5.7554765048        1.2193853623
  H        36.2790272211       34.4823636498        6.2731535401
  H        36.3818045999       34.2087726123        9.4995450983
  H        40.5796015992       33.2028568239        5.1537826719
  H        17.4719750991        1.9474018687        7.9742386589
  H        29.1757568806       19.5028082576       12.5616003489
  H        28.6556321212       18.6537580995        3.7595045783
  H        31.1706502945       15.6552748990       12.5973673265
  H        27.7973298052       17.9475510809       14.2624101284
  H        29.1787495087       15.6763872286       14.6546503144
  H        32.4056132426       17.9602079188        0.9188192418
  H        18.8542552279        0.8690844826       12.3355637384
  H        40.5276448072       35.2290042122        3.9518215476
  H        42.3255400817       34.4200698360        3.5901444276
  H        22.0880671657        0.6923270846       12.3510076660
  H        11.5970572572       18.7127227307       12.3822115424
  H        52.2649668749       18.4311865057        3.6775534887
  H        49.2552350969       16.4765473746        3.5841068791
  H        10.1502452657       15.7981975230       12.2925866152
  H        50.8500776916       17.6926646506        3.9541467828
  H        10.0460620682       17.3945893109       12.0519014107
  H        20.2160776795        0.0026322816       12.0418384822
  H        39.1836712617       36.1245344260        3.6864091794
 Ni        30.4365664429       18.1094186619        2.2531413184
 Ni        30.9889720287       16.5221637082       -0.1664405316
 Ni        29.3361884788       18.2594951383        0.1664171325
 Ni        29.9288456368       17.4309011690       13.2382811019
  O        10.6497877625       14.3652319275        5.4858541183
  O        12.6130811829       14.6575292517        6.5839088495
  O        49.1474333899       16.8459995026        7.9896057060
  O        50.3501902202       20.9359009310        5.6481711136
  O        48.3484592714       20.5931746513        6.6659395162
  O        11.0513843719       17.0538773384        6.5006715049
  O        50.3208470463       20.8816099362       10.4068055460
  O        48.3466575611       20.5865717522        9.3269947494
  O        49.5434054648       18.2483979400       10.0681245990
  O        12.3588101451       18.6245975154        7.9997454013
  O        48.6931592370       14.1487480706        6.7512251699
  O         8.2098287386       14.2104888420        9.3225824132