     566
 i =      159, E =     -4712.2514800082
  C        11.8588295438       14.0533930068        5.7415464782
  C        12.4562667065       12.8905363967        5.0232945732
  C        11.7045837592       12.1715762702        4.0816214384
  C        12.2809826851       11.1093977839        3.3892832962
  C        13.6215795369       10.7396014506        3.6169959883
  C        14.3547402038       11.4432205659        4.5904453165
  C        13.7818391813       12.5081765730        5.2819654944
  C        14.2610624672        9.6489320851        2.8435753521
  C        14.2561177689        9.6567526546        1.4218781185
  C        13.7429361552       10.7588655941        0.6679699757
  C        49.1268550627       21.2331966671        5.8797013452
  C        48.5501175583       22.4011575036        5.1527011352
  C        49.2999863538       23.0681601706        4.1713577670
  C        48.7330727778       24.1073100324        3.4381639250
  C        47.4026913901       24.5093376582        3.6670948458
  C        46.6719719417       23.8608758768        4.6810660568
  C        47.2344029859       22.8159703242        5.4104228361
  C        46.7723957257       25.5869712181        2.8697986468
  C        46.7613606198       25.5573032265        1.4480341252
  C        47.2613793863       24.4422748898        0.7044941639
  C        14.8599881699        8.5703846885        0.7085998699
  C        14.8920206947        8.5970799006        3.5202160762
  C        49.1132250052       21.2034886364       10.1454194219
  C        48.5279432656       22.3649629140       10.8723745531
  C        49.2670315796       23.0253255642       11.8656440083
  C        48.6907495618       24.0599068068       12.5970930543
  C        47.3605089149       24.4570992560       12.3585356308
  C        46.6403394400       23.8126713788       11.3345174705
  C        47.2138336133       22.7767476874       10.6027231177
  C        46.7219878524       25.5319551476       13.1496324365
  C        46.7336319499       25.5281934873       14.5713424902
  C        47.2491309671       24.4290097089       15.3277299469
  C        40.6161132606       17.0827584518       15.3059693375
  C        40.6161352144       17.0933993742       12.4952401631
  C        11.8829308070       14.0864042841       10.2855176733
  C        12.4721313268       12.9106646640       10.9897244258
  C        11.7146430360       12.1775708955       11.9159706030
  C        12.2811706914       11.0950656787       12.5843204298
  C        13.6199395094       10.7211555999       12.3523773824
  C        14.3578746875       11.4366002889       11.3914418718
  C        13.7925083020       12.5178230948       10.7187965763
  C        14.2534701251        9.6243768020       13.1227907290
  C        14.2521101065        9.6443268863       14.5446296427
  C        13.7423168960       10.7533036553       15.2917166391
  C        22.5132077988        3.2442003443        5.7522044455
  C        23.2314109884        4.3461447793        5.0507754211
  C        24.2273007122        4.0592917690        4.1051748567
  C        24.8605065288        5.0937871930        3.4212171391
  C        24.5139651881        6.4382198464        3.6619154213
  C        23.5455651676        6.7164801714        4.6440236396
  C        22.9077802849        5.6837173994        5.3267904783
  C        25.1275342505        7.5406042295        2.8858338018
  C        25.1045450047        7.5331836840        1.4639788781
  C        24.4018167246        6.5358466764        0.7159248278
  C        38.2980743041       31.9277773118        5.8517217949
  C        37.5565554927       30.8391297104        5.1501663776
  C        36.5928539624       31.1463288069        4.1770783830
  C        35.9626090592       30.1286871572        3.4658907811
  C        36.2803011496       28.7770548201        3.7043579567
  C        37.2131236194       28.4773607061        4.7153213188
  C        37.8475297328       29.4939945031        5.4258116721
  C        35.6704814449       27.6887248304        2.9050065943
  C        35.7138930889       27.7017624080        1.4832819202
  C        36.4286311940       28.7013865046        0.7504821413
  C        25.7310820230        8.6023625840        0.7455493709
  C        25.7268141827        8.6136585862        3.5575531538
  C        38.3307362678       31.9605068202       10.1604668347
  C        37.6154878625       30.8864354509       10.9098823987
  C        36.6829208890       31.1940117917       11.9126535906
  C        36.0750763085       30.1756977298       12.6452183787
  C        36.3846629948       28.8226002187       12.3999016082
  C        37.2980154378       28.5249730674       11.3696506051
  C        37.9075911321       29.5397656845       10.6381166430
  C        35.7717330438       27.7230045602       13.1818469100
  C        35.7654677163       27.7193801670       14.6045592450
  C        36.4515269389       28.7110376127       15.3738372563
  C        46.1354607224       26.6207192482       15.2815186239
  C        46.0879857601       26.5803242753       12.4736204489
  C        22.4642775092        3.2559078794       10.2567874997
  C        23.1664879210        4.3622629210       10.9759821549
  C        24.1732659921        4.0715333521       11.9106376614
  C        24.8096804381        5.0982860855       12.6040488716
  C        24.4599491379        6.4460707611       12.3863507423
  C        23.4765032567        6.7300647128       11.4197378034
  C        22.8356219861        5.7035508735       10.7263266091
  C        25.0969200918        7.5406407612       13.1614490336
  C        25.0892396626        7.5328280865       14.5843681889
  C        24.3926987943        6.5367095398       15.3389992910
  C        26.6209768699       17.8513050772        5.7134648104
  C        25.3093204184       17.9074740428        5.0047200929
  C        25.0304466078       18.9272106269        4.0814064653
  C        23.8100796248       18.9515604194        3.4100529802
  C        22.8351940717       17.9609204355        3.6426977180
  C        23.1091641668       16.9645435703        4.5977109051
  C        24.3312781353       16.9341527532        5.2660962339
  C        21.5612639172       17.9466754493        2.8825325732
  C        21.5655329256       17.9292014682        1.4607926013
  C        22.7742247373       17.8104373065        0.7044097484
  C        34.4432575841       17.1927314272        5.9232913274
  C        35.7374788453       17.1456841061        5.1793583615
  C        35.9585598383       16.1560218519        4.2084878943
  C        37.1376910005       16.1441053527        3.4687943113
  C        38.1311259311       17.1197241580        3.6808222001
  C        37.9150088247       18.0896294393        4.6780615345
  C        36.7317682640       18.1074339422        5.4142176417
  C        39.3831395519       17.1255457669        2.8889098110
  C        39.3711946466       17.1187214014        1.4671277447
  C        38.1588964489       17.2230967416        0.7154234271
  C        20.3206113539       17.9456120425        0.7510694358
  C        20.3373322182       17.9427567732        3.5646814969
  C        34.3834572953       17.2139315037       10.2602053285
  C        35.6935338587       17.1183608999       10.9684111227
  C        35.9272810593       16.1251437685       11.9316788601
  C        37.1312631626       16.0938894198       12.6311196743
  C        38.1312595959       17.0562311717       12.3888778879
  C        37.9049861100       18.0215835418       11.3903370979
  C        36.7016244288       18.0554910955       10.6915446938
  C        39.3891702140       17.0756817250       13.1689676703
  C        39.3745129634       17.0939491317       14.5902603408
  C        38.1604987173       17.2101315689       15.3387291005
  C        35.1259904116       26.6424516127       15.3047469311
  C        35.1895514843       26.6495076319       12.4949904619
  C        26.5716346189       17.8276599250       10.3158468214
  C        25.2563080291       17.8747419953       11.0210516635
  C        24.9851425942       18.8937611318       11.9466720715
  C        23.7678446713       18.9214676423       12.6215724105
  C        22.7920445120       17.9311888446       12.3919019946
  C        23.0567754400       16.9371451289       11.4328031308
  C        24.2754890629       16.9065503152       10.7576253536
  C        21.5272225218       17.9170318249       13.1632810443
  C        21.5479140990       17.9124600653       14.5844837928
  C        22.7654546414       17.8017734102       15.3281802512
  C        14.0460927308       17.8308290755       10.2856273977
  C        15.3517733666       17.8924747276       11.0049972404
  C        15.6102226083       18.9016164263       11.9455044880
  C        16.8206491645       18.9256731697       12.6348321600
  C        17.8048587888       17.9433863346       12.4048688889
  C        17.5518286930       16.9593966387       11.4308732844
  C        16.3409270387       16.9308082667       10.7430223782
  C        19.0722155144       17.9269425615       13.1741512818
  C        19.0666497565       17.9254161831       14.5960638644
  C        17.8576016496       17.8265399817       15.3543681069
  C        46.8001925305       17.2153521111       10.1552202914
  C        45.5027745706       17.1426163626       10.8913083852
  C        45.2948842838       16.1580438645       11.8699020123
  C        44.1087489948       16.1290399660       12.5992639789
  C        43.0981232500       17.0842653472       12.3734690470
  C        43.3017143898       18.0464792564       11.3656042435
  C        44.4891359755       18.0794702434       10.6371864798
  C        41.8453638448       17.0888451555       13.1662045285
  C        41.8585876283       17.0962336432       14.5889179023
  C        43.0711692457       17.2004648394       15.3410241599
  C        20.3114131098       17.9372019773       15.3066163407
  C        20.2971504247       17.9043755573       12.4940153665
  C        46.7869053783       17.2340875204        5.8849888333
  C        45.4875724049       17.1347836127        5.1603218687
  C        45.2700940966       16.1375310713        4.1975251685
  C        44.0843319060       16.1134117380        3.4672537748
  C        43.0865451728       17.0839900422        3.6822690287
  C        43.2960884368       18.0537737421        4.6805310020
  C        44.4826522998       18.0837462351        5.4063368462
  C        41.8375666896       17.1018649233        2.8892669096
  C        41.8548317393       17.1016881305        1.4678550894
  C        43.0694441563       17.1999196857        0.7181659016
  C        46.1532231127       26.6371173664        0.7262839336
  C        46.1624188010       26.6561000883        3.5359203795
  C        14.0436852050       17.8307239706        5.7070412044
  C        15.3609772198       17.9040288610        5.0111207394
  C        15.6295730380       18.9207058659        4.0825026267
  C        16.8553508761       18.9592159987        3.4222508961
  C        17.8396270929       17.9802381718        3.6651833595
  C        17.5774251089       16.9915333043        4.6309586193
  C        16.3536592129       16.9525101772        5.2948355545
  C        19.1060418906       17.9602685169        2.8957609321
  C        19.0843297950       17.9416802700        1.4742376493
  C        17.8661576476       17.8334513713        0.7307463882
  C        28.7923978940       14.1155719464       10.3978570353
  C        28.2004510896       12.9301632707       11.0802247002
  C        28.9302901358       12.2010514315       12.0303701082
  C        28.3448709049       11.1151887841       12.6770750235
  C        27.0150339151       10.7369144784       12.4009375425
  C        26.3089516650       11.4461059243       11.4124431125
  C        26.8926250539       12.5297128507       10.7618525943
  C        26.3524652860        9.6523752592       13.1617457763
  C        26.3379402039        9.6776509658       14.5831230421
  C        26.8360348118       10.7920056717       15.3303281013
  C        32.1839828114       21.2367425549       10.1384764618
  C        32.7841413057       22.3976687642       10.8632879468
  C        32.0327964135       23.0841980060       11.8299857614
  C        32.6031014291       24.1222422208       12.5606187960
  C        33.9416760710       24.5045552146       12.3463325923
  C        34.6762669200       23.8372405166       11.3477923795
  C        34.1079440283       22.7931840880       10.6191533390
  C        34.5666975814       25.5811149720       13.1501937643
  C        34.5419091483       25.5572059069       14.5722748605
  C        34.0227511624       24.4453697268       15.3080750009
  C        25.7276958378        8.5986750894       15.3004223077
  C        25.7154214356        8.6021235120       12.4871330046
  C        32.0763664451       21.1927609175        5.8689750810
  C        32.6416458291       22.3612480817        5.1303698569
  C        31.9100229817       23.0066346690        4.1214598795
  C        32.4822717402       24.0490910243        3.3938422606
  C        33.8001938221       24.4754590899        3.6535094661
  C        34.5116901012       23.8445098431        4.6925817950
  C        33.9447026728       22.7997587971        5.4166814833
  C        34.4433506000       25.5594748016        2.8731283128
  C        34.4773783831       25.5467846251        1.4507081538
  C        33.9905641443       24.4410121027        0.6846970569
  C        40.6136556531       17.0905880044        0.7511120438
  C        40.6101458670       17.1334188200        3.5614272791
  C        28.7491380305       14.0636063370        5.8132889822
  C        28.1451250864       12.9133655911        5.0777321423
  C        28.8825282872       12.2259469944        4.1015714581
  C        28.3080077902       11.1658977903        3.4044967824
  C        26.9796140061       10.7673887981        3.6566866718
  C        26.2599168428       11.4425234484        4.6604187148
  C        26.8330186715       12.5025428482        5.3601847600
  C        26.3415958039        9.6760241588        2.8819718552
  C        26.3336512010        9.6898467404        1.4598609258
  C        26.8319869243       10.7988832390        0.7063903274
  C        18.1355549522        3.1809711396       10.3171120459
  C        17.4061432140        4.2782110244       11.0156963228
  C        16.3900786879        3.9997897589       11.9428151530
  C        15.7422627283        5.0397219684       12.6063137701
  C        16.0944222427        6.3834370839       12.3669974086
  C        17.0842091660        6.6530405298       11.4036819644
  C        17.7333946327        5.6157381666       10.7386291527
  C        15.4699545787        7.4910712777       13.1300691534
  C        15.4851261759        7.4903400824       14.5517916992
  C        16.1866765823        6.4967115831       15.3049474804
  C        42.9457611472       31.8595714442       10.0727578024
  C        43.6460941616       30.7718135594       10.8168396676
  C        44.5915326093       31.0931797390       11.8029594105
  C        45.1972512287       30.0876595148       12.5506708326
  C        44.8709055924       28.7345964072       12.3357666096
  C        43.9451446503       28.4202122944       11.3225146433
  C        43.3363168200       29.4253378939       10.5744407009
  C        45.4885607285       27.6553006250       13.1389251209
  C        45.4926375622       27.6808030836       14.5606267844
  C        44.8054341759       28.6887654743       15.3072607571
  C        14.8561332284        8.5628168329       15.2641649067
  C        14.8747499542        8.5628802193       12.4514905142
  C        42.9463402454       31.9616945644        5.8089759899
  C        43.6915691436       30.8854483090        5.0954299568
  C        44.6563515563       31.1913216379        4.1233326211
  C        45.2778832598       30.1717174911        3.4056054408
  C        44.9539041179       28.8214388396        3.6431015977
  C        44.0201748969       28.5237900006        4.6536412629
  C        43.3919056994       29.5405873648        5.3657934756
  C        45.5629718891       27.7240069670        2.8578760512
  C        45.5331597504       27.7172198893        1.4365796700
  C        44.8267269830       28.7073918557        0.6836549674
  C        35.0962536550       26.6355098808        0.7503343380
  C        35.0521189029       26.6177213287        3.5606455488
  C        18.1488946825        3.2470965920        5.7066157412
  C        17.4303012534        4.3439647392        4.9973140425
  C        16.4147326385        4.0526532555        4.0741504085
  C        15.7664050210        5.0832545359        3.3987284215
  C        16.1214022103        6.4284623602        3.6210573482
  C        17.1132324799        6.7118929226        4.5778231054
  C        17.7609376379        5.6830082180        5.2576300671
  C        15.4907390475        7.5240961036        2.8486196788
  C        15.4963429715        7.5073513338        1.4274775023
  C        16.1929958462        6.5055840045        0.6807638802
  H        10.6724439111       12.4656469590        3.9046012657
  H        11.6947368123       10.5508748751        2.6627452838
  H        15.3918089623       11.1687253859        4.7721254335
  H        14.3513994622       13.0714091093        6.0173194789
  H        13.3761285077       11.6310890089        1.2012553403
  H        50.3225755136       22.7478868580        3.9863571009
  H        49.3194838430       24.6223381985        2.6803665398
  H        45.6426831991       24.1621047485        4.8646421605
  H        46.6635889090       22.2911592739        6.1729607503
  H        47.6300602755       23.5759310613        1.2461310626
  H        14.8726857222        8.5884448538        4.6085297036
  H        50.2869333022       22.7021828170       12.0608300796
  H        49.2690703295       24.5750860014       13.3608372623
  H        45.6111461931       24.1103930004       11.1450537755
  H        46.6531711132       22.2550065878        9.8307604215
  H        47.6080820575       23.5519560529       14.7968451405
  H        40.6151603106       17.0583116317       11.4073811168
  H        48.6872446650       14.0951310602        7.8000769257
  H        10.6812168357       12.4667240182       12.0934634783
  H        11.6894202264       10.5247178801       13.2970832074
  H        15.3932858322       11.1586728073       11.2054453799
  H        14.3649489383       13.0870986135        9.9902720170
  H        13.3756477878       11.6219991896       14.7531093271
  H        47.9301777682       14.2189964937        9.7109973637
  H        47.7800469871       14.3741724091        6.4956350113
  H        49.0826829311       18.5519657761       10.8671183867
  H        10.4163872817       14.1343341132        7.9988792464
  H        24.4831702477        3.0190006031        3.9169103468
  H        25.6332117260        4.8701942416        2.6888542765
  H        23.2700932191        7.7513161054        4.8365332698
  H        22.1384927803        5.8902970107        6.0669053519
  H        23.8380664141        5.7798437497        1.2546956499
  H        36.3625935257       32.1905959091        3.9795015500
  H        35.2164904523       30.3723314866        2.7126898955
  H        37.4666510392       27.4369838598        4.9083398474
  H        38.5932768851       29.2684538035        6.1845322666
  H        36.9896853076       29.4513706482        1.3003403544
  H        25.7594366096        8.5963500331        4.6454454011
  H        36.4534996969       32.2378426193       12.1148458587
  H        35.3453307217       30.4217106172       13.4134798016
  H        37.5512329719       27.4852836452       11.1728922712
  H        38.6333693913       29.3130418629        9.8608860681
  H        37.0309399247       29.4681735083       14.8532451656
  H        46.1095231755       26.5878981476       11.3855869828
  H        44.6682288799       35.1161678524        7.8140594706
  H        24.4476814953        3.0320435871       12.0753902730
  H        25.5933041422        4.8650161967       13.3217664175
  H        23.1944612699        7.7658813366       11.2420838286
  H        22.0607734002        5.9210672883        9.9947709548
  H        23.8215216023        5.7818594156       14.8064177959
  H        44.9535195531       34.3901034052        9.6950145497
  H        44.9015000800       34.2066631618        6.4908054696
  H        40.6659859741       33.2092631201       10.8532246611
  H        23.1506862594        1.9579468658        8.0048790016
  H        25.7797081624       19.6954395747        3.9045758575
  H        23.5971149763       19.7447051591        2.6965300005
  H        22.3665130275       16.1912777236        4.7832599635
  H        24.5574212331       16.1515878806        5.9864906220
  H        23.7142226209       17.6939050050        1.2360415163
  H        35.1907316089       15.4040598354        4.0435859750
  H        37.3064200181       15.3693904151        2.7239302532
  H        38.6735385233       18.8513204851        4.8467444170
  H        36.5488313355       18.8712640889        6.1665615109
  H        37.2221781194       17.3462554147        1.2514982028
  H        20.3433523151       17.9777605054        4.6526948005
  H        35.1521522499       15.3876337458       12.1267028983
  H        37.3104779485       15.3198833934       13.3742251159
  H        38.6699631774       18.7707337761       11.1967757134
  H        36.5084778286       18.8170871206        9.9399068125
  H        37.2243823901       17.3236106536       14.7998120193
  H        35.1736998285       26.6729458384       11.4069761240
  H        28.4967554746       21.0719374611        7.8694351529
  H        25.7406929065       19.6578350925       12.1158522118
  H        23.5569715534       19.7148449039       13.3354677021
  H        22.3110877836       16.1660242211       11.2504363054
  H        24.4965269699       16.1270514984       10.0324449832
  H        23.6984360683       17.6781177127       14.7862731410
  H        29.0246138301       21.7153927894        9.7217828153
  H        29.2012555985       21.7006261925        6.5587437278
  H        32.0166263376       18.5988268733       10.9363543491
  H        27.3689818783       19.0109199535        7.9962853720
  H        14.8519070035       19.6613489903       12.1210466927
  H        17.0189533195       19.7130255570       13.3588799713
  H        18.3027461070       16.1941177549       11.2454545965
  H        16.1320090515       16.1581357397       10.0070190095
  H        16.9163577833       17.7117389573       14.8247453481
  H        46.0808300447       15.4292857616       12.0539374129
  H        43.9515947662       15.3585537967       13.3509680472
  H        42.5307772607       18.7926370168       11.1844112003
  H        44.6610883637       18.8383839799        9.8773671502
  H        44.0098594213       17.3127921896       14.8060572542
  H        20.2931568430       17.9305469772       11.4057958432
  H        46.0452426208       15.3944759674        4.0243877312
  H        43.9177329177       15.3376935251        2.7230098340
  H        42.5315596257       18.8086204357        4.8522420487
  H        44.6649960519       18.8503414550        6.1554415904
  H        44.0070142047       17.3109077220        1.2553358276
  H        46.1993620552       26.6827687639        4.6233606638
  H        52.7413640206       21.0627302365        8.1946813900
  H        14.8680742806       19.6746256335        3.8956448871
  H        17.0637747922       19.7509590975        2.7058835665
  H        18.3293030987       16.2294972777        4.8255557903
  H        16.1356620141       16.1769943054        6.0250810871
  H        16.9314057722       17.7237743402        1.2723734636
  H        52.3228568303       21.6735775139        6.2943104261
  H        52.0138480132       21.7026912712        9.4956215453
  H        49.0685597155       18.6083521261        5.2037786972
  H        13.2476374615       19.0162277762        7.9764134054
  H        29.9519956176       12.5032925162       12.2493534492
  H        28.9120797478       10.5485672123       13.4123255795
  H        25.2816130822       11.1643919688       11.1909525703
  H        26.3436561064       13.0982786016       10.0153165066
  H        27.1937923894       11.6645460122       14.7919856489
  H        31.0033459807       22.7806738824       12.0032557693
  H        32.0134923088       24.6521425612       13.3055385518
  H        35.7120847132       24.1222443968       11.1749039524
  H        34.6814089974       22.2551949264        9.8677458532
  H        33.6727587685       23.5748429431       14.7606600391
  H        25.7451088775        8.5843422287       11.3990726192
  H        30.8974971711       22.6700324037        3.9098379994
  H        31.9066039812       24.5485188216        2.6175599914
  H        35.5314148913       24.1611044389        4.9017888594
  H        34.5020431605       22.2923689192        6.2004499288
  H        33.6159623992       23.5666881276        1.2093229562
  H        40.6095863838       17.1093630892        4.6495028401
  H        32.5049071632       14.1537413177        8.2651148354
  H        29.9062502013       12.5377623875        3.9075264915
  H        28.8875579576       10.6287818069        2.6568313508
  H        25.2320096240       11.1482127123        4.8621758627
  H        26.2731370752       13.0391000026        6.1224681970
  H        27.1856118271       11.6766938245        1.2393729896
  H        33.3135496440       14.2265857941        6.4718178272
  H        33.4048087022       14.3825475345        9.6142656240
  H        32.1285946973       18.4347782373        5.1470321432
  H        30.1875235721       14.1496828091        8.0985392673
  H        16.1178486265        2.9632767918       12.1289273000
  H        14.9525658719        4.8202870220       13.3216866486
  H        17.3669697814        7.6858991771       11.2109580619
  H        18.5157818210        5.8184653861       10.0111752375
  H        16.7532340138        5.7393902107       14.7714186997
  H        44.8276971039       32.1402891088       11.9771576029
  H        45.9370669952       30.3414632223       13.3066508346
  H        43.6825200425       27.3781274451       11.1523792460
  H        42.5997548672       29.1900341518        9.8097078938
  H        44.2300611917       29.4365161070       14.7689471583
  H        14.8512041897        8.5461874340       11.3632653143
  H        44.9000245383       32.2339994529        3.9320200174
  H        46.0249271799       30.4129344264        2.6524985363
  H        43.7630130600       27.4840803517        4.8450463430
  H        42.6451748957       29.3178786850        6.1240413608
  H        44.2682240079       29.4702550160        1.2182849422
  H        35.0001768785       26.6321163933        4.6477286061
  H        36.6053610279       35.1340806509        8.1806419756
  H        16.1434302831        3.0130828682        3.9047379807
  H        14.9738299944        4.8563992310        2.6889246653
  H        17.3971678041        7.7473213593        4.7542581604
  H        18.5442380024        5.8934877146        5.9819315920
  H        16.7645121030        5.7554007449        1.2191974834
  H        36.2792712418       34.4819879176        6.2733833104
  H        36.3814041407       34.2088463371        9.4994500353
  H        40.5787663441       33.2019138922        5.1539223697
  H        17.4714246860        1.9477569616        7.9741234523
  H        29.4480911674       19.7600404174       12.4896858489
  H        28.8122407515       18.5922284205        3.6915940683
  H        32.0484315761       15.8604884299        3.6050212582
  H        32.0843565205       16.4351856116       12.5487142122
  H        28.2134756479       18.5722226661       14.3421557343
  H        32.5886077903       17.3378235222        1.2846294985
  H        18.8534245987        0.8688332991       12.3353173345
  H        40.5284283522       35.2292065515        3.9520954131
  H        42.3236705065       34.4186524951        3.5905822554
  H        22.0874074279        0.6922440751       12.3513743866
  H        11.5967732970       18.7125677021       12.3826193773
  H        52.2645817191       18.4316780994        3.6771222553
  H        49.2553667958       16.4765272239        3.5843435289
  H        10.1502272497       15.7982733275       12.2925038544
  H        50.8500803544       17.6924093625        3.9540770257
  H        10.0460328826       17.3947864844       12.0518793888
  H        20.2147833447        0.0021320224       12.0419689296
  H        39.1840651721       36.1247970280        3.6864539411
 Ni        30.6888243531       17.5183734692        2.6659098080
 Ni        31.1945271956       16.1150858563       -0.0815017762
 Ni        29.8490720105       17.8648393149       -0.0048388336
 Ni        30.1894696017       17.7144360226       13.3290529164
  O        10.6499291865       14.3651375076        5.4858810038
  O        12.6131671183       14.6575095680        6.5838758533
  O        49.1477434486       16.8458758487        7.9898352663
  O        50.3502448347       20.9358201685        5.6480951839
  O        48.3485431249       20.5932387165        6.6659791963
  O        11.0518157962       17.0537805529        6.5006521290
  O        50.3209576238       20.8816682294       10.4068571078
  O        48.3467049151       20.5867048421        9.3271590949
  O        49.5434309421       18.2483482424       10.0683032040
  O        12.3590917491       18.6246660291        7.9996705173
  O        48.6932049245       14.1486216660        6.7513279817
  O         8.2098435237       14.2105668037        9.3226148336