     576
 i =      165, E =     -4780.0517712743
  C        11.8587967373       14.0534625957        5.7415545516
  C        12.4562904964       12.8905351665        5.0233254663
  C        11.7046495152       12.1716813917        4.0815581250
  C        12.2810521642       11.1094936097        3.3892168171
  C        13.6215938729       10.7396189190        3.6170620487
  C        14.3546960221       11.4431123651        4.5906423467
  C        13.7817845304       12.5080666722        5.2821560368
  C        14.2611583693        9.6490016352        2.8436403293
  C        14.2564431396        9.6569465762        1.4219430838
  C        13.7432631336       10.7590743645        0.6680494602
  C        49.1267371297       21.2333103732        5.8797539060
  C        48.5499924839       22.4012204650        5.1526628683
  C        49.2999768616       23.0683746808        4.1715155701
  C        48.7330729471       24.1075085122        3.4382952784
  C        47.4026023958       24.5093171046        3.6670389621
  C        46.6717285107       23.8606524126        4.6807497479
  C        47.2341439715       22.8157466575        5.4101191995
  C        46.7723564795       25.5869836734        2.8697446275
  C        46.7613270669       25.5573337454        1.4479848405
  C        47.2611826862       24.4422094503        0.7044848060
  C        14.8604594554        8.5706662012        0.7086615711
  C        14.8919558316        8.5970485190        3.5202748532
  C        49.1132608031       21.2034899793       10.1453719217
  C        48.5279473485       22.3648796440       10.8724875673
  C        49.2670952839       23.0254221459       11.8655803409
  C        48.6907648817       24.0599857785       12.5970240760
  C        47.3604377104       24.4569520495       12.3586111041
  C        46.6401513769       23.8122534129       11.3348611147
  C        47.2136891720       22.7763412393       10.6030861148
  C        46.7219590725       25.5318961740       13.1496347470
  C        46.7335797370       25.5281713129       14.5713390924
  C        47.2489397724       24.4289228750       15.3277228621
  C        40.6319162769       17.1064989348       15.3218771425
  C        40.6478292089       17.1513818518       12.5128660779
  C        11.8830143387       14.0865043701       10.2855480853
  C        12.4723323365       12.9107293832       10.9897228426
  C        11.7149029113       12.1776107139       11.9159787539
  C        12.2815383068       11.0951887109       12.5843949258
  C        13.6203285825       10.7213998891       12.3524384155
  C        14.3581889607       11.4368441707       11.3914502195
  C        13.7927131308       12.5179759559       10.7187531807
  C        14.2539909721        9.6247097484       13.1228642519
  C        14.2526618524        9.6446599527       14.5447015973
  C        13.7427414215       10.7535745420       15.2917958482
  C        22.5119979302        3.2442380513        5.7532743727
  C        23.2269653282        4.3491730450        5.0543647790
  C        24.2213846432        4.0688424101        4.1055580495
  C        24.8483365364        5.1083814253        3.4235597962
  C        24.4966652289        6.4502243793        3.6705958614
  C        23.5308494849        6.7219961167        4.6566675047
  C        22.8990681684        5.6843436018        5.3369119222
  C        25.1007269037        7.5573827194        2.8948904743
  C        25.0655952993        7.5541768145        1.4736335985
  C        24.3607257955        6.5562394080        0.7283780529
  C        38.3013767726       31.9264546159        5.8484606964
  C        37.5701914694       30.8352440335        5.1393453273
  C        36.6071916692       31.1372836977        4.1639994629
  C        35.9885790087       30.1165073488        3.4465176840
  C        36.3174319065       28.7667637093        3.6811822054
  C        37.2503228184       28.4721070995        4.6936091446
  C        37.8727359485       29.4916317010        5.4102848434
  C        35.7178166981       27.6739257157        2.8802431540
  C        35.7533895384       27.6910467303        1.4582908691
  C        36.4530590976       28.6996163482        0.7234608077
  C        25.6844181891        8.6264242371        0.7537556958
  C        25.7035302071        8.6288270121        3.5653914263
  C        38.3291923943       31.9633769448       10.1550935321
  C        37.6074424929       30.8904055073       10.8958040310
  C        36.6769952779       31.1990002243       11.8996408593
  C        36.0671515558       30.1800362938       12.6284145841
  C        36.3746534452       28.8283271292       12.3761116101
  C        37.2827171225       28.5296814842       11.3420605061
  C        37.8943099867       29.5450026399       10.6144604063
  C        35.7690924494       27.7276321773       13.1584891393
  C        35.7792856805       27.7190776560       14.5803412741
  C        36.4652440677       28.7131771159       15.3465523093
  C        46.1355816337       26.6208120912       15.2814751132
  C        46.0880461535       26.5802843785       12.4735805523
  C        22.4598007928        3.2562784608       10.2581218914
  C        23.1504926516        4.3662283317       10.9819223788
  C        24.1500244301        4.0829554497       11.9262943794
  C        24.7741264853        5.1150556981       12.6228583376
  C        24.4191473455        6.4602589318       12.3975832859
  C        23.4428855489        6.7366802425       11.4216252755
  C        22.8139386625        5.7048981598       10.7257544891
  C        25.0464543925        7.5602787691       13.1718881896
  C        25.0381505261        7.5549908124       14.5947642464
  C        24.3458848077        6.5575031794       15.3515095368
  C        26.6148535646       17.8580374802        5.7822198969
  C        25.3088657571       17.9049228009        5.0584040909
  C        25.0443856361       18.9065691543        4.1106825154
  C        23.8317777238       18.9242907949        3.4242246635
  C        22.8465372516       17.9451094610        3.6647466113
  C        23.1068121169       16.9663991751        4.6426153089
  C        24.3218220496       16.9420344809        5.3256218570
  C        21.5738852904       17.9303222284        2.8996309911
  C        21.5758409740       17.9107876526        1.4772030543
  C        22.7825610298       17.7885406323        0.7185450276
  C        34.4404221699       17.1906608628        5.9158091444
  C        35.7335748947       17.1372307207        5.1749338548
  C        35.9481736991       16.1555492154        4.1948662504
  C        37.1282515115       16.1431978319        3.4573678109
  C        38.1274074918       17.1092983739        3.6831363591
  C        37.9178314707       18.0703191834        4.6901991711
  C        36.7337254875       18.0894862888        5.4232672954
  C        39.3812637284       17.1155864037        2.8966611850
  C        39.3755044307       17.1239117257        1.4752606107
  C        38.1671439665       17.2421025318        0.7190582305
  C        20.3301681150       17.9291532514        0.7670848099
  C        20.3486628646       17.9318636939        3.5807527127
  C        34.4703075695       17.2456285744       10.1804240630
  C        35.7686534412       17.1742083750       10.9121896063
  C        35.9859897705       16.1799227413       11.8779182609
  C        37.1722503532       16.1564738819       12.6058482159
  C        38.1694546770       17.1261759356       12.3860964181
  C        37.9574516484       18.0977589189       11.3906274974
  C        36.7690371598       18.1263545231       10.6658901224
  C        39.4178697638       17.1359243494       13.1790829448
  C        39.3944703083       17.1350941125       14.5998545535
  C        38.1765623602       17.2463188293       15.3422785669
  C        35.1568511407       26.6339243458       15.2812961706
  C        35.1824187462       26.6571989314       12.4720000283
  C        26.5761633572       17.8270917001       10.3254760427
  C        25.2625346645       17.8692453066       11.0357887023
  C        24.9977430188       18.8748418408       11.9778948303
  C        23.7795547077       18.9003040481       12.6515793118
  C        22.7965935398       17.9206336482       12.4061356328
  C        23.0565024696       16.9390370037       11.4327070631
  C        24.2754860625       16.9111133585       10.7578302482
  C        21.5315504828       17.9034915465       13.1771301863
  C        21.5538837364       17.8950110532       14.5986327926
  C        22.7714972205       17.7804484518       15.3421214205
  C        14.0473260868       17.8290297736       10.2886724754
  C        15.3525252378       17.8864080191       11.0131729320
  C        15.6101561685       18.8897625141       11.9604166690
  C        16.8196515103       18.9105538218       12.6526197844
  C        17.8061581406       17.9308304012       12.4199689285
  C        17.5534318006       16.9519243558       11.4403141904
  C        16.3433731919       16.9265427504       10.7497262369
  C        19.0750901301       17.9130038264       13.1897114739
  C        19.0724119618       17.9099203925       14.6123000764
  C        17.8645952020       17.8117652263       15.3724233806
  C        46.8053381488       17.2183970413       10.1587660790
  C        45.5157682760       17.1557374775       10.9048144887
  C        45.3090874193       16.1739855974       11.8861860564
  C        44.1280850931       16.1547180580       12.6232405611
  C        43.1243711269       17.1176323146       12.4011323430
  C        43.3282669503       18.0791590433       11.3929897089
  C        44.5097367634       18.1019156865       10.6564724551
  C        41.8721919115       17.1277425197       13.1908410569
  C        41.8784239145       17.1191515166       14.6126986397
  C        43.0878437699       17.2077059298       15.3714088847
  C        20.3184113548       17.9204272837       15.3220554063
  C        20.3002333966       17.8925972489       12.5089496533
  C        46.7861008847       17.2303882459        5.8903318482
  C        45.4829762322       17.1221891796        5.1763494237
  C        45.2649670800       16.1203119989        4.2186666855
  C        44.0773097706       16.0914005679        3.4923133211
  C        43.0793129991       17.0614071985        3.7073864301
  C        43.2873042421       18.0326993182        4.7042579340
  C        44.4760420192       18.0678994590        5.4256975989
  C        41.8341423572       17.0827976666        2.9100799661
  C        41.8591673087       17.0949382224        1.4893251915
  C        43.0787518179       17.1940448248        0.7481023408
  C        46.1533079935       26.6372096958        0.7262340665
  C        46.1624989760       26.6561609474        3.5358658889
  C        14.0448153087       17.8310769519        5.7083767231
  C        15.3650490379       17.9039390216        5.0166783117
  C        15.6388404565       18.9195893563        4.0885371912
  C        16.8675357267       18.9559610084        3.4332056828
  C        17.8496305625       17.9757208665        3.6803670102
  C        17.5825126153       16.9886496112        4.6463778383
  C        16.3559027795       16.9518232964        5.3052611206
  C        19.1171094588       17.9507674111        2.9122030297
  C        19.0943937099       17.9283361825        1.4907087690
  C        17.8753145558       17.8199235307        0.7486884666
  C        28.8076535595       14.0922133050       10.3952280002
  C        28.1903356460       12.9222708574       11.0842255813
  C        28.9065104912       12.1856177895       12.0393601037
  C        28.3029043907       11.1127199348       12.6902864347
  C        26.9690756779       10.7524989675       12.4100093074
  C        26.2750708080       11.4695759779       11.4189704335
  C        26.8760576210       12.5429776902       10.7668775670
  C        26.2963906378        9.6742208267       13.1694586478
  C        26.2815752273        9.7023089640       14.5903717048
  C        26.7819453616       10.8165570987       15.3359015934
  C        32.1817833003       21.2370230628       10.1408901439
  C        32.7799006665       22.4009820027       10.8594701896
  C        32.0378893968       23.0755094667       11.8410120480
  C        32.6124807412       24.1147429007       12.5662590725
  C        33.9441006564       24.5073125241       12.3299541818
  C        34.6684670726       23.8513647838       11.3170636965
  C        34.0964954345       22.8062332734       10.5941857810
  C        34.5752895073       25.5820076162       13.1289157557
  C        34.5743619655       25.5475785922       14.5500026364
  C        34.0835025733       24.4218519615       15.2830348047
  C        25.6744156433        8.6232263629       15.3090854648
  C        25.6617818470        8.6224893682       12.4956613402
  C        32.1149846160       21.1828122236        5.8364851709
  C        32.7059646755       22.3314498438        5.0876689996
  C        31.9911566126       22.9565166955        4.0535983546
  C        32.5692368642       23.9985621475        3.3310668350
  C        33.8758616640       24.4421582962        3.6200614190
  C        34.5720190464       23.8246569209        4.6769516862
  C        33.9987084678       22.7809440721        5.3981583874
  C        34.5156160203       25.5309297285        2.8471432497
  C        34.5443428128       25.5208551458        1.4255151114
  C        34.0704517716       24.4097030509        0.6593367913
  C        40.6217661927       17.0974778743        0.7662101584
  C        40.6041195415       17.1125105198        3.5760482462
  C        28.7423909835       14.0673108707        5.8153671421
  C        28.1355354913       12.9198013977        5.0800301103
  C        28.8586468632       12.2475349715        4.0833481278
  C        28.2774352886       11.1902649039        3.3879326457
  C        26.9566495810       10.7817382376        3.6609955289
  C        26.2507307951       11.4431377794        4.6838771729
  C        26.8305507383       12.4993273178        5.3828240358
  C        26.3109012163        9.6944566540        2.8882116468
  C        26.2906330519        9.7130391226        1.4663198409
  C        26.7844063391       10.8235332632        0.7118690060
  C        18.1355084044        3.1810717282       10.3171732753
  C        17.4063060305        4.2783426714       11.0158563471
  C        16.3903065171        4.0000525049       11.9430791471
  C        15.7426254861        5.0400765959       12.6065542127
  C        16.0948976165        6.3837431369       12.3671322491
  C        17.0846172401        6.6532141146       11.4037114303
  C        17.7336657792        5.6158245169       10.7386851284
  C        15.4705484499        7.4914532399       13.1301550124
  C        15.4857672937        7.4907282162       14.5518660584
  C        16.1873273973        6.4971033251       15.3050208235
  C        42.9458790843       31.8596049643       10.0728372111
  C        43.6462900325       30.7719074284       10.8168137157
  C        44.5917872685       31.0932641233       11.8028944976
  C        45.1975438010       30.0877334029       12.5505530201
  C        44.8711657683       28.7346660339       12.3356768713
  C        43.9453866002       28.4202860522       11.3224356890
  C        43.3365349177       29.4254170499       10.5744043652
  C        45.4887785034       27.6553719363       13.1388561213
  C        45.4928732022       27.6809368356       14.5605520019
  C        44.8058209091       28.6890066775       15.3071752520
  C        14.8567278955        8.5631743710       15.2642333638
  C        14.8752651597        8.5632106679       12.4515684911
  C        42.9465479753       31.9616686025        5.8089349283
  C        43.6918323638       30.8855206888        5.0954782411
  C        44.6564011181       31.1914461093        4.1231679557
  C        45.2779239064       30.1718643089        3.4054238791
  C        44.9541848865       28.8215495908        3.6430937639
  C        44.0207648563       28.5238644614        4.6539245503
  C        43.3925108177       29.5406237510        5.3661182780
  C        45.5631467162       27.7241261587        2.8578186925
  C        45.5334136421       27.7174129584        1.4365214420
  C        44.8270829325       28.7076362272        0.6835684980
  C        35.1426791932       26.6203208578        0.7261619695
  C        35.1139024967       26.5943958129        3.5354739876
  C        18.1486292441        3.2469190296        5.7065330460
  C        17.4301294552        4.3437730634        4.9971625457
  C        16.4146263794        4.0525691575        4.0739006241
  C        15.7663362070        5.0832498194        3.3985601641
  C        16.1213431840        6.4284285997        3.6210497318
  C        17.1130943044        6.7117505455        4.5779252561
  C        17.7607580986        5.6827908810        5.2576328867
  C        15.4908224388        7.5241629886        2.8486591477
  C        15.4967021190        7.5075670261        1.4275285649
  C        16.1935092785        6.5058920313        0.6808348739
  H        10.6725419814       12.4658394944        3.9044673876
  H        11.6948039312       10.5510321862        2.6626300739
  H        15.3916983286       11.1684582631        4.7724576233
  H        14.3512198431       13.0712150638        6.0176686629
  H        13.3762243733       11.6311841447        1.2013635454
  H        50.3226375895       22.7482312297        3.9866965275
  H        49.3195256130       24.6226585826        2.6806142106
  H        45.6423187039       24.1616163767        4.8640662292
  H        46.6631986417       22.2906881614        6.1723879360
  H        47.6296773916       23.5758087581        1.2461603947
  H        14.8723648475        8.5882720780        4.6085830965
  H        50.2870689920       22.7024344982       12.0606395147
  H        49.2690980268       24.5753139281       13.3606576374
  H        45.6108381630       24.1096922431       11.1456166340
  H        46.6529477495       22.2543588440        9.8313447775
  H        47.6076893612       23.5517865885       14.7968352084
  H        40.6524725315       17.1272916154       11.4248256639
  H        48.6872104972       14.0948154746        7.8000597838
  H        10.6814419055       12.4666775547       12.0934427874
  H        11.6897981820       10.5247984602       13.2971368602
  H        15.3935809361       11.1588935139       11.2053886538
  H        14.3650019613       13.0872617593        9.9901198148
  H        13.3759132031       11.6222006349       14.7531824780
  H        47.9302183505       14.2182127119        9.7107971019
  H        47.7801218848       14.3737675721        6.4954471401
  H        49.0837796376       18.5524644939       10.8674151991
  H        10.4162429455       14.1342894834        7.9987059090
  H        24.4803465894        3.0301221848        3.9128132139
  H        25.6193418469        4.8910974190        2.6875164674
  H        23.2524581079        7.7552044422        4.8535751957
  H        22.1309496146        5.8846761966        6.0798620082
  H        23.8012932244        5.7986456702        1.2694087545
  H        36.3679237545       32.1801539907        3.9695683463
  H        35.2421588578       30.3565127402        2.6924574870
  H        37.5132108607       27.4334610438        4.8834016822
  H        38.6182833461       29.2699185822        6.1702939809
  H        37.0116172174       29.4528402509        1.2714553871
  H        25.7464393187        8.6070518486        4.6528320795
  H        36.4529183691       32.2431368118       12.1059124725
  H        35.3396130840       30.4235921454       13.3994968604
  H        37.5311046136       27.4895577697       11.1417391312
  H        38.6181553486       29.3208243332        9.8348094910
  H        37.0344546833       29.4763324118       14.8236276638
  H        46.1095630364       26.5877583895       11.3855471692
  H        44.6683518064       35.1162849271        7.8139317371
  H        24.4287249804        3.0453890397       12.0959866602
  H        25.5529490177        4.8883407195       13.3478353676
  H        23.1572567796        7.7705394950       11.2384628735
  H        22.0443245804        5.9156752070        9.9868182693
  H        23.7744286993        5.8015336659       14.8207963476
  H        44.9541587537       34.3907382855        9.6954323183
  H        44.9020841224       34.2069063166        6.4906895468
  H        40.6661219089       33.2092055160       10.8529413771
  H        23.1502325367        1.9582465215        8.0053842872
  H        25.7985211558       19.6687498427        3.9279165655
  H        23.6320538724       19.7065666291        2.6950030205
  H        22.3580141850       16.2011636622        4.8368666478
  H        24.5341077591       16.1720811599        6.0637632317
  H        23.7230835289       17.6701095651        1.2488388045
  H        35.1759793742       15.4103615527        4.0200993333
  H        37.2927308652       15.3760715045        2.7038441858
  H        38.6825449566       18.8235431026        4.8683792153
  H        36.5542829878       18.8457489514        6.1839532440
  H        37.2272775145       17.3617260040        1.2505463768
  H        20.3540967663       17.9703636965        4.6686747626
  H        35.2083974095       15.4395796475       12.0507264174
  H        37.3411321387       15.3820768812       13.3509497465
  H        38.7216808491       18.8528464302       11.2183960215
  H        36.5834694889       18.8917930668        9.9160884665
  H        37.2437707395       17.3687320964       14.7994983328
  H        35.1520511520       26.6878206910       11.3845110189
  H        28.5097941827       21.0858578241        7.8810413612
  H        25.7584944890       19.6303208308       12.1616444904
  H        23.5735926516       19.6848740383       13.3765313536
  H        22.3061606963       16.1754896381       11.2378052369
  H        24.4916330277       16.1422382124       10.0198907052
  H        23.7036312096       17.6557467728       14.7992874136
  H        29.0011054443       21.7242650947        9.7471241171
  H        29.1680236317       21.7380608635        6.5502854335
  H        32.0850528873       18.5749781859       10.9193339292
  H        27.4069328992       19.0729171867        8.0744138192
  H        14.8520163345       19.6490038160       12.1391200489
  H        17.0152054867       19.6949446149       13.3806554616
  H        18.3042974762       16.1874332673       11.2512837512
  H        16.1370821184       16.1572289088       10.0093927829
  H        16.9225302229       17.6968939447       14.8442170730
  H        46.0910753909       15.4396522750       12.0645274989
  H        43.9680668155       15.3854886186       13.3755434807
  H        42.5613147847       18.8306892994       11.2174915869
  H        44.6837256740       18.8583663103        9.8948035609
  H        44.0297589185       17.3200228585       14.8421275660
  H        20.2955526386       17.9220486242       11.4207891606
  H        46.0420916487       15.3795701808        4.0447721978
  H        43.9100719553       15.3144774941        2.7494867760
  H        42.5208406320       18.7855313239        4.8760087068
  H        44.6592273357       18.8365629704        6.1724369315
  H        44.0137400665       17.2948011021        1.2915678962
  H        46.1994331734       26.6827676675        4.6233066603
  H        52.7411842263       21.0626361349        8.1947053569
  H        14.8790352496       19.6742667296        3.8976911402
  H        17.0794569815       19.7466366119        2.7166666791
  H        18.3323107023       16.2254598881        4.8444839449
  H        16.1340569326       16.1771528861        6.0352191065
  H        16.9412756358       17.7113623981        1.2917190923
  H        52.3225197473       21.6733305917        6.2943023221
  H        52.0133656739       21.7021453438        9.4957217942
  H        49.0675363104       18.6078446883        5.2042397117
  H        13.2475542044       19.0162861940        7.9772435014
  H        29.9347171636       12.4669980335       12.2557551861
  H        28.8596465429       10.5405863766       13.4292818693
  H        25.2446309774       11.2011089914       11.1952433201
  H        26.3379185595       13.1179163643       10.0173059761
  H        27.1410950012       11.6874731838       14.7962455257
  H        31.0152586268       22.7590703952       12.0312324295
  H        32.0328689569       24.6364748091       13.3246498912
  H        35.6992262966       24.1452764846       11.1296848489
  H        34.6610427549       22.2734474621        9.8324629157
  H        33.7425995503       23.5486959021       14.7338607834
  H        25.6941722959        8.6018305326       11.4077406844
  H        30.9851734097       22.6087090109        3.8271753872
  H        32.0053432452       24.4885405096        2.5403164982
  H        35.5840341948       24.1528693761        4.9050610069
  H        34.5412013365       22.2858455794        6.2002036501
  H        33.7204255199       23.5253031522        1.1831962577
  H        40.5974939224       17.0790502616        4.6638433385
  H        32.5066278992       14.1441063900        8.2426954076
  H        29.8748600979       12.5677845928        3.8669116526
  H        28.8468435224       10.6661070093        2.6236639385
  H        25.2283051257       11.1410390674        4.9012689119
  H        26.2821751719       13.0260512512        6.1601325839
  H        27.1458537632       11.6997047104        1.2425611409
  H        33.3073795188       14.2262058825        6.4642635009
  H        33.4089834276       14.4108212314        9.5937636056
  H        32.1070880151       18.4816709256        5.1401505516
  H        30.1923682824       14.1479894373        8.0745314233
  H        16.1179857152        2.9635763427       12.1292519068
  H        14.9529377046        4.8207807224       13.3219780268
  H        17.3673885029        7.6860470453       11.2108725597
  H        18.5159976709        5.8184058217       10.0111331256
  H        16.7539415479        5.7398204212       14.7714983877
  H        44.8280373510       32.1403589476       11.9770623917
  H        45.9374236779       30.3415328099       13.3064701210
  H        43.6827778629       27.3782005551       11.1522881643
  H        42.5999930141       29.1900815307        9.8096679174
  H        44.2305373349       29.4368193491       14.7688575016
  H        14.8515941154        8.5464617452       11.3633465565
  H        44.8999207276       32.2341344634        3.9317137587
  H        46.0248098645       30.4131218834        2.6521750311
  H        43.7638956106       27.4841224749        4.8455431233
  H        42.6460921090       29.3178519917        6.1246498678
  H        44.2686629557       29.4705863267        1.2181540015
  H        35.0630925898       26.6070705154        4.6226408407
  H        36.6051115692       35.1339980677        8.1807146097
  H        16.1433017563        3.0130214223        3.9043851560
  H        14.9738069994        4.8564951977        2.6886738802
  H        17.3969965205        7.7471645830        4.7544907308
  H        18.5439984891        5.8931732906        5.9820220800
  H        16.7649621174        5.7556778907        1.2192924864
  H        36.2785660999       34.4822175913        6.2729501540
  H        36.3810450385       34.2092017445        9.4996377217
  H        40.5799383440       33.2022758565        5.1532387751
  H        17.4708524529        1.9472973127        7.9739167494
  H        29.1731614746       19.3240804169       12.5079647147
  H        28.7950257967       18.7207373682        3.7857748592
  H        32.2113856643       16.1299238379        3.6122897988
  H        31.4266986087       15.5844023808       12.4958914799
  H        27.9362628927       17.6458527923       14.1250233628
  H        29.3672741417       15.2944051992       14.2457883844
  H        32.3895815549       20.7816140796        2.1119063501
  H        32.2579027841       17.6973326442        1.0750825172
  H        30.2241215105       15.1073283584        2.4086529124
  H        33.1997405576       18.2541809426       14.1063459188
  H        18.8531177250        0.8688419720       12.3353607844
  H        40.5280405540       35.2288963878        3.9520169034
  H        42.3243655244       34.4192746547        3.5900280144
  H        22.0874169949        0.6921347045       12.3515157148
  H        11.5967827544       18.7128360807       12.3826227092
  H        52.2645232054       18.4311942312        3.6770026326
  H        49.2548615916       16.4769650589        3.5846629908
  H        10.1495227117       15.7982149880       12.2931198055
  H        50.8497651573       17.6923790685        3.9542332183
  H        10.0457534802       17.3944408838       12.0519843655
  H        20.2142994832        0.0020632508       12.0419825416
  H        39.1836987510       36.1245845944        3.6867916619
 Ni        30.6489206585       17.6929309050        2.7459345644
 Ni        30.7757003574       16.3521549552       -0.0821481221
 Ni        29.4235640865       18.1619934586       -0.0729181784
 Ni        30.0125071960       17.2843107604       12.9955969386
  O        10.6499783764       14.3650963434        5.4858413096
  O        12.6131776391       14.6575248681        6.5839108493
  O        49.1479884488       16.8459005924        7.9897642750
  O        50.3501753126       20.9359933112        5.6481813514
  O        48.3485179411       20.5932967916        6.6659567490
  O        11.0517690674       17.0538670537        6.5007160323
  O        50.3210583458       20.8816687675       10.4068354820
  O        48.3467705470       20.5867657246        9.3271645186