     573
 i =      123, E =     -4762.7823770251
  C        11.8588243335       14.0535073505        5.7415515658
  C        12.4563016836       12.8906540272        5.0231805815
  C        11.7045932646       12.1716246678        4.0816017538
  C        12.2810116000       11.1094513230        3.3892556502
  C        13.6216423766       10.7397777035        3.6168945660
  C        14.3548770600       11.4435536995        4.5901543653
  C        13.7819590840       12.5085106888        5.2816683213
  C        14.2611006553        9.6490442059        2.8435322239
  C        14.2562372894        9.6568512791        1.4218341981
  C        13.7432735098       10.7590749601        0.6679390064
  C        49.1268794318       21.2333551568        5.8796712352
  C        48.5500534494       22.4013260568        5.1526848468
  C        49.2999170895       23.0683419344        4.1713648226
  C        48.7329573355       24.1074392160        3.4381274198
  C        47.4025529742       24.5093468181        3.6670480069
  C        46.6718319823       23.8608900077        4.6810085387
  C        47.2343176194       22.8160331340        5.4103879351
  C        46.7722043145       25.5869257296        2.8697334459
  C        46.7610811140       25.5572262796        1.4479741768
  C        47.2610764276       24.4421686886        0.7044673436
  C        14.8599709303        8.5703889020        0.7085841322
  C        14.8918608862        8.5971029959        3.5201999291
  C        49.1132125875       21.2034262915       10.1452795868
  C        48.5278249182       22.3648648107       10.8723898747
  C        49.2668845590       23.0251742335       11.8656913334
  C        48.6906059794       24.0597699832       12.5971421544
  C        47.3603797619       24.4569501282       12.3585652624
  C        46.6401835118       23.8125172956       11.3345794670
  C        47.2137095283       22.7766082889       10.6027820629
  C        46.7218812920       25.5318597871       13.1496122381
  C        46.7334140854       25.5281022641       14.5713188745
  C        47.2488306731       24.4288831473       15.3277066801
  C        40.6193544747       17.1309509899       15.2934648901
  C        40.6314137990       17.1663502751       12.4843868059
  C        11.8830086877       14.0864724614       10.2855331156
  C        12.4722460680       12.9107196928       10.9897880841
  C        11.7146617314       12.1774258802       11.9157822334
  C        12.2812380363       11.0949512494       12.5841535507
  C        13.6201126024       10.7213291466       12.3524379946
  C        14.3581789023       11.4370263581       11.3918161171
  C        13.7927738222       12.5182276897       10.7191584344
  C        14.2535929812        9.6244782511       13.1228020009
  C        14.2522908112        9.6444256722       14.5446348585
  C        13.7426680490       10.7535028351       15.2916856350
  C        22.5067429933        3.2448512859        5.7429903223
  C        23.2091326566        4.3465123277        5.0222196926
  C        24.1979793792        4.0592737700        4.0691550850
  C        24.8217790411        5.0924492914        3.3736388911
  C        24.4742902744        6.4375878646        3.6100446638
  C        23.5083564940        6.7162537122        4.5948479076
  C        22.8798065442        5.6847592622        5.2887889367
  C        25.0922825379        7.5404765127        2.8361006168
  C        25.0797954644        7.5373619504        1.4140977330
  C        24.3793582794        6.5439100523        0.6593054990
  C        38.3038097672       31.9308937186        5.8486846282
  C        37.5765634264       30.8418874328        5.1373062816
  C        36.6206503988       31.1460162525        4.1562477494
  C        36.0059918825       30.1255935397        3.4362997680
  C        36.3327194038       28.7768398869        3.6770080862
  C        37.2592860822       28.4802169020        4.6940716303
  C        37.8783337279       29.4993085744        5.4124981708
  C        35.7302858005       27.6850089952        2.8811729175
  C        35.7618596629       27.6973914584        1.4601012104
  C        36.4712433759       28.6962942972        0.7215311796
  C        25.7151886420        8.6059621780        0.7013331575
  C        25.6915910797        8.6106857211        3.5134473663
  C        38.3284459899       31.9617799272       10.1557099018
  C        37.6068848436       30.8873892241       10.8960438695
  C        36.6794372703       31.1939942909       11.9034706860
  C        36.0709566688       30.1738792123       12.6321431572
  C        36.3755308725       28.8217454310       12.3768867522
  C        37.2797236905       28.5251147826       11.3387131406
  C        37.8905042817       29.5417137517       10.6114434788
  C        35.7699280258       27.7218163439       13.1617918650
  C        35.7826636891       27.7159581100       14.5836997927
  C        36.4805484996       28.7055574017       15.3448264614
  C        46.1352725230       26.6206595107       15.2814638129
  C        46.0880433101       26.5803001187       12.4735665070
  C        22.4668702849        3.2557504189       10.2489414730
  C        23.1754828300        4.3664575280       10.9525058753
  C        24.1886199789        4.0837479625       11.8821817890
  C        24.8263412769        5.1174989164       12.5631605002
  C        24.4697229458        6.4620698990       12.3375100007
  C        23.4825916398        6.7380180590       11.3731135923
  C        22.8411322348        5.7046176922       10.6913399688
  C        25.0981677892        7.5599214639       13.1129422644
  C        25.0820007309        7.5475460992       14.5353334858
  C        24.3790663676        6.5499106733       15.2825958893
  C        26.5624425642       17.8273353489        5.7847819291
  C        25.2634528097       17.8860164393        5.0577310251
  C        25.0333823275       18.8703828190        4.0845032677
  C        23.8239748688       18.9024533363        3.3947200816
  C        22.8157907420       17.9523157969        3.6545726886
  C        23.0439560327       16.9914774147        4.6575194861
  C        24.2532537174       16.9551306923        5.3475516380
  C        21.5499274398       17.9436936727        2.8836108563
  C        21.5577873786       17.9203858247        1.4616361225
  C        22.7663853121       17.7848473738        0.7081244158
  C        34.3828453357       17.2897844123        5.8052686440
  C        35.6931889129       17.2136072100        5.0944541234
  C        35.9170179847       16.2213668514        4.1266713024
  C        37.1124736429       16.1893905488        3.4146244673
  C        38.1170317304       17.1492219259        3.6497979703
  C        37.8996107601       18.1155810881        4.6494524468
  C        36.7015988753       18.1516126854        5.3602521570
  C        39.3757487373       17.1486188268        2.8699297896
  C        39.3681713781       17.1596192726        1.4483642580
  C        38.1601848084       17.2912353654        0.6927311037
  C        20.3147390512       17.9463526426        0.7482798965
  C        20.3231346372       17.9478972261        3.5607893285
  C        34.4730040024       17.2519629487       10.1059930496
  C        35.7648847481       17.1899191744       10.8515929206
  C        35.9665891288       16.2138831421       11.8390752300
  C        37.1456359541       16.1967062374       12.5794785233
  C        38.1533387449       17.1542145792       12.3523094233
  C        37.9553297601       18.1090881601       11.3371684632
  C        36.7735619009       18.1320832933       10.6003597211
  C        39.4005875459       17.1627199144       13.1502370830
  C        39.3808980973       17.1675457170       14.5716816306
  C        38.1656446058       17.2937222227       15.3160411956
  C        35.1500388927       26.6392442076       15.2894366650
  C        35.1780754124       26.6509122098       12.4805320551
  C        26.5756963007       17.8225719276       10.3225306605
  C        25.2622148515       17.8679733396       11.0305574085
  C        25.0035922040       18.8689719022       11.9789199740
  C        23.7847586247       18.8985058840       12.6504278574
  C        22.7961504768       17.9270849522       12.3964940362
  C        23.0502163436       16.9498646657       11.4171890805
  C        24.2698146806       16.9180941989       10.7441548320
  C        21.5297205670       17.9148595211       13.1636960737
  C        21.5466702517       17.9048851873       14.5849970017
  C        22.7606454636       17.7778764455       15.3318904076
  C        14.0470383222       17.8322446463       10.2841143687
  C        15.3541049652       17.8973306419       11.0000312566
  C        15.6144714406       18.9110588501       11.9351043808
  C        16.8258175520       18.9377360919       12.6226241506
  C        17.8087803448       17.9532417504       12.3968881555
  C        17.5543717009       16.9654329587       11.4270964411
  C        16.3427946068       16.9344865929       10.7405614478
  C        19.0748707924       17.9358269071       13.1681933971
  C        19.0656682831       17.9342854340       14.5900881299
  C        17.8540684506       17.8421490220       15.3448732621
  C        46.8036881313       17.2168435575       10.1545206855
  C        45.5083411651       17.1521907660       10.8908935359
  C        45.2910618718       16.1657954161       11.8649165234
  C        44.1054058982       16.1487802601       12.5947060996
  C        43.1086503579       17.1187116136       12.3722796820
  C        43.3217233539       18.0829717857       11.3689868238
  C        44.5077388744       18.1034052599       10.6399334971
  C        41.8561219165       17.1372514106       13.1612741424
  C        41.8647843790       17.1334808119       14.5829711231
  C        43.0761130051       17.2163990755       15.3394028987
  C        20.3087330081       17.9382597141       15.3038686642
  C        20.3011753571       17.9097371835       12.4911867736
  C        46.7840571994       17.2339721032        5.8841087610
  C        45.4824751611       17.1338140404        5.1601091149
  C        45.2624547063       16.1360742286        4.1980151735
  C        44.0760775278       16.1120512684        3.4676826898
  C        43.0782177178       17.0834201426        3.6803877766
  C        43.2896839230       18.0527674363        4.6790877535
  C        44.4767434037       18.0824505845        5.4051928442
  C        41.8304045444       17.1070561446        2.8827306156
  C        41.8518950061       17.1163731804        1.4608762385
  C        43.0701606664       17.2065076859        0.7163318711
  C        46.1529923583       26.6370623030        0.7262202958
  C        46.1622600184       26.6560636011        3.5358404456
  C        14.0413805864       17.8303038874        5.7065216247
  C        15.3556405741       17.9039275692        5.0076602881
  C        15.6215853799       18.9249994599        4.0831657459
  C        16.8453772119       18.9660770651        3.4200420649
  C        17.8287151828       17.9851233491        3.6567229503
  C        17.5685546674       16.9908195241        4.6171234561
  C        16.3470037593       16.9492962829        5.2841345168
  C        19.0948487186       17.9674268105        2.8884940778
  C        19.0762486617       17.9497122845        1.4673035722
  C        17.8593349986       17.8486690547        0.7212557570
  C        28.8142702308       14.0869228134       10.2859153430
  C        28.2067482836       12.9244771102       10.9974810991
  C        28.9327376157       12.2058740204       11.9590808325
  C        28.3408941162       11.1371842383       12.6288380940
  C        27.0084970254       10.7612939880       12.3616130981
  C        26.3025418721       11.4650181757       11.3686651575
  C        26.8915137114       12.5343351613       10.6982415764
  C        26.3475178877        9.6754662252       13.1238379429
  C        26.3341570296        9.6908212009       14.5455465090
  C        26.8416324683       10.7956879341       15.3002296088
  C        32.1776782190       21.2373412058       10.1466473384
  C        32.7766885255       22.3971168084       10.8710652294
  C        32.0294090431       23.0744900164       11.8465737579
  C        32.6000205368       24.1156547108       12.5721614125
  C        33.9337045629       24.5057960282       12.3439213592
  C        34.6641460374       23.8455795116       11.3380462245
  C        34.0954953136       22.7997999591       10.6135649552
  C        34.5631203716       25.5822859671       13.1419848201
  C        34.5551204521       25.5559644647       14.5636745146
  C        34.0405744995       24.4448146557       15.3038642570
  C        25.7187739477        8.6097047935       15.2565286584
  C        25.7140922259        8.6258901776       12.4440272052
  C        32.0961350193       21.2432928292        5.8840587678
  C        32.6864158903       22.3979450545        5.1475333779
  C        31.9488518293       23.0650059339        4.1567296401
  C        32.5328340013       24.0896460459        3.4157799960
  C        33.8662363410       24.4789480559        3.6499276920
  C        34.5849812163       23.8284765248        4.6713347866
  C        34.0072167240       22.7965487680        5.4059130900
  C        34.5100220220       25.5551711479        2.8621565842
  C        34.5251854767       25.5430599890        1.4403831665
  C        34.0237976613       24.4397625738        0.6806797262
  C        40.6130561608       17.1245005978        0.7384417331
  C        40.5994853247       17.1405323773        3.5489994972
  C        28.7411374637       14.0659572557        5.7390496345
  C        28.1399223504       12.9089109084        5.0143873714
  C        28.8884258739       12.1747964732        4.0817484247
  C        28.3065178117       11.1124858332        3.3943640865
  C        26.9613998632       10.7565974856        3.6170700388
  C        26.2302670672       11.4748079268        4.5811315145
  C        26.8098783309       12.5386906996        5.2690015386
  C        26.3181854933        9.6683615661        2.8425717204
  C        26.3212508374        9.6863899126        1.4214302725
  C        26.8354612506       10.7938414990        0.6761539892
  C        18.1354607589        3.1810249429       10.3170919660
  C        17.4060200445        4.2781965334       11.0156536951
  C        16.3901684056        3.9997224173       11.9430036814
  C        15.7423128701        5.0396242954       12.6064918176
  C        16.0941866464        6.3833861153       12.3669615680
  C        17.0836711474        6.6530330778       11.4033316713
  C        17.7328817255        5.6157657053       10.7382677866
  C        15.4697982677        7.4910208544       13.1300554626
  C        15.4849678836        7.4902528510       14.5517751029
  C        16.1863900399        6.4965551049       15.3049573190
  C        42.9459418675       31.8596511869       10.0728985277
  C        43.6463434036       30.7719721291       10.8168987718
  C        44.5918461572       31.0932765376       11.8029849485
  C        45.1975396792       30.0877020196       12.5506349837
  C        44.8711321122       28.7346538487       12.3356932326
  C        43.9453371078       28.4203440019       11.3224548933
  C        43.3365221312       29.4255080619       10.5744501237
  C        45.4886564429       27.6553063163       13.1388544048
  C        45.4926006671       27.6808034146       14.5605444908
  C        44.8053578716       28.6887618504       15.3071457197
  C        14.8561188024        8.5628051668       15.2641552707
  C        14.8747130864        8.5629145480       12.4514862736
  C        42.9463650182       31.9615439632        5.8089776503
  C        43.6915570590       30.8853719848        5.0954417661
  C        44.6560801241       31.1912716503        4.1230874257
  C        45.2775482743       30.1716741756        3.4053233405
  C        44.9538132105       28.8213706318        3.6430427417
  C        44.0204208410       28.5237234319        4.6539042065
  C        43.3922094320       29.5404980042        5.3661127541
  C        45.5627949117       27.7239532592        2.8577868349
  C        45.5329507792       27.7171873545        1.4364964239
  C        44.8265633953       28.7073691279        0.6835409101
  C        35.1372139920       26.6311456267        0.7342175913
  C        35.1238898122       26.6123224769        3.5439449267
  C        18.1485145345        3.2470157901        5.7065073168
  C        17.4299501801        4.3438202483        4.9972739760
  C        16.4146192490        4.0525241517        4.0738339393
  C        15.7662715652        5.0831387295        3.3984747633
  C        16.1210103893        6.4283820010        3.6210769410
  C        17.1125095177        6.7117954444        4.5782086715
  C        17.7602134306        5.6829003810        5.2579695514
  C        15.4904761783        7.5240441580        2.8486184977
  C        15.4961266670        7.5072577429        1.4274822507
  C        16.1926990351        6.5054329971        0.6807719312
  H        10.6724293337       12.4656575973        3.9046541586
  H        11.6947641553       10.5508733772        2.6627606198
  H        15.3920231099       11.1692486401        4.7716728571
  H        14.3515577582       13.0719115773        6.0168663459
  H        13.3766488954       11.6313695999        1.2012387765
  H        50.3225410578       22.7481382663        3.9864242805
  H        49.3193580094       24.6224934933        2.6803400734
  H        45.6425307497       24.1620770364        4.8645643983
  H        46.6635825351       22.2911702989        6.1729472041
  H        47.6297725638       23.5758517094        1.2461368850
  H        14.8724373411        8.5885138990        4.6085122492
  H        50.2867832920       22.7020072406       12.0608699224
  H        49.2689502000       24.5749434633       13.3608735594
  H        45.6109885227       24.1102419581       11.1451328303
  H        46.6531125060       22.2548875569        9.8307595213
  H        47.6077879028       23.5518343809       14.7968179479
  H        40.6359196014       17.1376926204       11.3964537859
  H        48.6872356101       14.0953822006        7.8001348251
  H        10.6811676368       12.4664458135       12.0931061152
  H        11.6894684440       10.5244661252       13.2967914535
  H        15.3937275668       11.1594115279       11.2061288532
  H        14.3653077957       13.0877958974        9.9909343714
  H        13.3762047342       11.6222628644       14.7530357960
  H        47.9302527706       14.2192195863        9.7108901393
  H        47.7800091071       14.3747848890        6.4956798572
  H        49.0835210320       18.5522752193       10.8672498884
  H        10.4163377520       14.1343177145        7.9988844181
  H        24.4581171744        3.0191835284        3.8854800427
  H        25.5910039486        4.8665795342        2.6382747455
  H        23.2294800104        7.7508136771        4.7840438157
  H        22.1148021480        5.8934180117        6.0328292251
  H        23.8102960943        5.7878366913        1.1925029581
  H        36.3845158263       32.1892847393        3.9604769357
  H        35.2639797727       30.3637133500        2.6773774124
  H        37.5183922992       27.4410616936        4.8859523930
  H        38.6195929466       29.2794054384        6.1770799463
  H        37.0390663827       29.4447526227        1.2665328438
  H        25.7155067166        8.5933152068        4.6015868886
  H        36.4566090088       32.2377572112       12.1131143367
  H        35.3466434395       30.4170784429       13.4063846666
  H        37.5263579308       27.4853119459       11.1344533630
  H        38.6115997377       29.3177147211        9.8291603878
  H        37.0564856972       29.4608592125       14.8178853838
  H        46.1096782690       26.5878738170       11.3855361191
  H        44.6681104925       35.1161891125        7.8141979386
  H        24.4648729386        3.0458443019       12.0537694139
  H        25.6135807017        4.8929118963       13.2796530857
  H        23.1969254600        7.7718979405       11.1901261738
  H        22.0617553179        5.9134276621        9.9621948642
  H        23.8096049133        5.7983155613       14.7437453744
  H        44.9530987206       34.3898123623        9.6948817255
  H        44.9016651101       34.2067844070        6.4907880149
  H        40.6656825825       33.2090109585       10.8531462304
  H        23.1501409058        1.9583659669        8.0012025190
  H        25.8148121503       19.5998342027        3.8829712212
  H        23.6459402541       19.6708424108        2.6455657542
  H        22.2749152947       16.2501623831        4.8645035353
  H        24.4433006601       16.2010593629        6.1076169181
  H        23.7036828551       17.6543203342        1.2413100998
  H        35.1377706044       15.4832719478        3.9495872490
  H        37.2877148447       15.4134674428        2.6723695685
  H        38.6684692327       18.8621511013        4.8377796318
  H        36.5169134922       18.9130496934        6.1146490505
  H        37.2244644669       17.4272395482        1.2273242822
  H        20.3252961100       17.9869504156        4.6486312653
  H        35.1800778422       15.4852279746       12.0210474955
  H        37.3017450307       15.4339428847       13.3392007882
  H        38.7253254587       18.8566218057       11.1577127479
  H        36.6009218739       18.8864787266        9.8363293028
  H        37.2341490436       17.4286320378       14.7733046640
  H        35.1485687538       26.6757856151       11.3928575682
  H        28.4870614287       21.1355427248        7.9819492775
  H        25.7705989000       19.6156732126       12.1714950017
  H        23.5833745175       19.6788571193       13.3811246327
  H        22.2948669681       16.1928015756       11.2166080333
  H        24.4825733863       16.1527700480       10.0015889726
  H        23.6935202306       17.6428162592       14.7927136595
  H        29.0117896616       21.7114385378        9.7766952405
  H        29.0933728197       21.8146019742        6.6032472890
  H        32.0719610033       18.5266347798       10.9129001754
  H        27.3417252684       19.0788446944        8.0742326074
  H        14.8567183490       19.6719014736       12.1081891965
  H        17.0254985124       19.7282136364       13.3428837668
  H        18.3046821562       16.1988799236       11.2445250801
  H        16.1327742900       16.1587612671       10.0080937251
  H        16.9135323013       17.7330545763       14.8128919444
  H        46.0688254288       15.4272664870       12.0446077441
  H        43.9373683926       15.3774652552       13.3431415986
  H        42.5595701457       18.8392542610       11.1929918579
  H        44.6903214567       18.8625123364        9.8829754154
  H        44.0176506003       17.3211565268       14.8078821819
  H        20.3001237952       17.9387809723       11.4030240475
  H        46.0366517449       15.3920618670        4.0244130693
  H        43.9102282838       15.3356511556        2.7239358151
  H        42.5263886530       18.8088497169        4.8510190088
  H        44.6585601340       18.8497023681        6.1538348059
  H        44.0070599604       17.3029977030        1.2573219231
  H        46.1993022797       26.6827645099        4.6232749881
  H        52.7414664910       21.0627839314        8.1946723562
  H        14.8598526546       19.6801765066        3.9027375157
  H        17.0534312598       19.7612073101        2.7073394594
  H        18.3208680332       16.2275636158        4.8049760957
  H        16.1296772057       16.1704824048        6.0110425320
  H        16.9227319774       17.7445454954        1.2607991105
  H        52.3232869475       21.6739186273        6.2943684506
  H        52.0140591661       21.7029071973        9.4955858008
  H        49.0683847963       18.6081328555        5.2034506963
  H        13.2478120415       19.0160364939        7.9761608208
  H        29.9587574216       12.5002366260       12.1682961460
  H        28.9085568887       10.5780555157       13.3694746099
  H        25.2722173933       11.1879226443       11.1551989155
  H        26.3421581627       13.0964507193        9.9469746457
  H        27.2099809043       11.6668958082       14.7668683153
  H        31.0055102121       22.7590855308       12.0317508676
  H        32.0150836763       24.6407776900       13.3240896667
  H        35.6966318081       24.1374511092       11.1571521761
  H        34.6641842801       22.2651314361        9.8562870175
  H        33.6800296374       23.5768414531       14.7592844314
  H        25.7459677199        8.6122354923       11.3559845962
  H        30.9205724413       22.7614087065        3.9728983411
  H        31.9557135603       24.6059331879        2.6517193248
  H        35.6164436605       24.1200191927        4.8582359146
  H        34.5680417758       22.2709230701        6.1752536145
  H        33.6495048899       23.5680333492        1.2099278153
  H        40.5931027905       17.1075528028        4.6368899771
  H        32.5338475669       14.1802875928        8.1513573988
  H        29.9286366352       12.4444911129        3.9146311797
  H        28.8917202885       10.5412693797        2.6769160888
  H        25.1894806919       11.2120022947        4.7588876803
  H        26.2422085216       13.1116986945        5.9983120611
  H        27.1984059708       11.6635296542        1.2161453856
  H        33.3396401570       14.3286891893        6.3624100730
  H        33.4083707496       14.3948910604        9.5276813049
  H        32.0642277497       18.6244481240        5.0506149436
  H        30.2429281537       14.2002085243        7.9702160490
  H        16.1181094600        2.9631982407       12.1292880520
  H        14.9527657168        4.8201502704       13.3220146598
  H        17.3661372480        7.6859261644       11.2103494034
  H        18.5149950240        5.8185587799       10.0105408758
  H        16.7528653391        5.7391552264       14.7714584728
  H        44.8280879737       32.1403646318       11.9772007008
  H        45.9373897275       30.3414210434       13.3066080393
  H        43.6826624731       27.3782771412       11.1523034319
  H        42.5998933533       29.1902434092        9.8097775218
  H        44.2300347319       29.4365293954       14.7688037798
  H        14.8511358904        8.5462801160       11.3632611362
  H        44.8996012150       32.2339603238        3.9316445216
  H        46.0244141205       30.4128845097        2.6520393126
  H        43.7635736086       27.4839864044        4.8455667419
  H        42.6458175445       29.3177658232        6.1246833863
  H        44.2680080983       29.4702178167        1.2181328946
  H        35.0817146287       26.6271328375        4.6313851760
  H        36.6050182642       35.1340389315        8.1806457311
  H        16.1434553310        3.0129547104        3.9042017276
  H        14.9738530498        4.8562926742        2.6884965986
  H        17.3961056370        7.7472592372        4.7549932281
  H        18.5431632705        5.8934075713        5.9826357041
  H        16.7641275057        5.7551726523        1.2191833770
  H        36.2782717054       34.4828073307        6.2731430342
  H        36.3806806497       34.2092970749        9.4998396326
  H        40.5807093323       33.2029994150        5.1536155456
  H        17.4707149138        1.9476697592        7.9740921287
  H        29.2177387742       19.3621590437       12.4997575766
  H        30.0634646180       19.8087325372        3.4744070428
  H        30.7714353384       15.3089570603        3.7095349486
  H        31.2960220916       15.5614466840       12.3337626118
  H        28.1739951172       17.7340244376       14.4782517295
  H        29.6263577768       15.5763483716       14.5980307831
  H        31.6931755360       18.8602283489        1.5760737796
  H        33.6891057622       16.1195144519        1.1754727863
  H        32.4339477594       18.9091504791       15.2913441817
  H        18.8528066215        0.8689734395       12.3350428466
  H        40.5280119563       35.2290940073        3.9520835106
  H        42.3238089785       34.4187413163        3.5904919000
  H        22.0876126232        0.6924261160       12.3518531194
  H        11.5968758118       18.7125814152       12.3826273762
  H        52.2649914267       18.4317011035        3.6774341142
  H        49.2551863898       16.4763286839        3.5841442192
  H        10.1507622974       15.7983741235       12.2925562816
  H        50.8503874919       17.6926901529        3.9538812486
  H        10.0463794063       17.3948588156       12.0518488455
  H        20.2138328536        0.0022574116       12.0421146347
  H        39.1836212531       36.1243614222        3.6861658999
 Ni        30.0107486245       17.2373520930        2.5782051281
 Ni        31.6236451653       16.5436776634       -0.4974785498
 Ni        30.0129814945       18.4958217152       -0.0761453421
 Ni        30.0970442075       17.3302668135       12.9940340751
  O        10.6499087572       14.3651531641        5.4858951024
  O        12.6131283063       14.6574609567        6.5839119827
  O        49.1476857582       16.8458004111        7.9896506679
  O        50.3501796998       20.9360578688        5.6480347063
  O        48.3484953822       20.5933205909        6.6658523027
  O        11.0511226435       17.0538857689        6.5008107484
  O        50.3208497256       20.8816457118       10.4069104843
  O        48.3466545821       20.5866962919        9.3270736285
  O        49.5436200892       18.2483483247       10.0681945031