     581
 i =      188, E =     -4829.4227379269
  C        11.8588191234       14.0535233188       13.7364126084
  C        12.4563444005       12.8906307673       13.0181499235
  C        11.7047256907       12.1717960315       12.0763533570
  C        12.2811318104       11.1096164469       11.3840106171
  C        13.6216782730       10.7397644732       11.6118518808
  C        14.3547699035       11.4432315303       12.5854498599
  C        13.7818538185       12.5081953235       13.2769525555
  C        14.2611921612        9.6490890003       10.8384817838
  C        14.2564917637        9.6570400647        9.4167885894
  C        13.7434574407       10.7592165597        8.6628711623
  C        49.1268796436       21.2332433684       13.8745303072
  C        48.5501724059       22.4011948672       13.1474805341
  C        49.3001701678       23.0684456972       12.1664043193
  C        48.7332277522       24.1075951523       11.4332311173
  C        47.4027171886       24.5093165763       11.6619376193
  C        46.6718151826       23.8605232902       12.6755458892
  C        47.2342682167       22.8156072730       13.4048725423
  C        46.7724526115       25.5869966619       10.8646747060
  C        46.7614628486       25.5573751187        9.4429161259
  C        47.2613821231       24.4422819364        8.6994097497
  C        14.8603734645        8.5706812252        8.7035153403
  C        14.8919317142        8.5971073001       11.5151149706
  C        49.1133076501       21.2035365568        2.1504589700
  C        48.5280291095       22.3649415780        2.8775636029
  C        49.2671677303       23.0254292557        3.8707000813
  C        48.6908527578       24.0599826508        4.6021672381
  C        47.3605516905       24.4570242445        4.3637163250
  C        46.6402729859       23.8123838193        3.3399176117
  C        47.2138018170       22.7764798604        2.6081254635
  C        46.7220737472       25.5319477026        5.1547614108
  C        46.7337597882       25.5282330511        6.5764655136
  C        47.2491269865       24.4289907670        7.3328577611
  C        40.6346387536       17.1348572981        7.3315724287
  C        40.6539131927       17.1726839459        4.5225149207
  C        11.8830164461       14.0865482072        2.2906230642
  C        12.4723109784       12.9107389126        2.9947836601
  C        11.7149149684       12.1777295129        3.9211503276
  C        12.2815267438       11.0952943146        4.5895552560
  C        13.6202672154       10.7213904761        4.3575076063
  C        14.3580949818       11.4367406747        3.3964316107
  C        13.7926525623       12.5179019308        2.7237467258
  C        14.2538800566        9.6246594395        5.1279089831
  C        14.2526394933        9.6446775784        6.5497441835
  C        13.7428909209       10.7536798853        7.2968265346
  C        22.5119467861        3.2440361306       13.7483213356
  C        23.2270825763        4.3488513797       13.0492335790
  C        24.2235847469        4.0680434610       12.1028059864
  C        24.8508162191        5.1072028678       11.4205244321
  C        24.4971369916        6.4489880686       11.6648962907
  C        23.5291970724        6.7213598957       12.6486836421
  C        22.8971855332        5.6840340179       13.3292145072
  C        25.1020219754        7.5553472978       10.8888233827
  C        25.0703188326        7.5496732247        9.4675378487
  C        24.3667296262        6.5508539783        8.7221052807
  C        38.3031775048       31.9294202994       13.8439101013
  C        37.5752107928       30.8389948056       13.1344463822
  C        36.6183123031       31.1407689723       12.1535112951
  C        36.0037774494       30.1187948076       11.4353207449
  C        36.3311230736       28.7701966688       11.6770271802
  C        37.2579720694       28.4759749878       12.6946776932
  C        37.8769678764       29.4966050370       13.4113163983
  C        35.7315076773       27.6770814121       10.8798821533
  C        35.7651940953       27.6912183233        9.4586991191
  C        36.4728645850       28.6926487091        8.7218541948
  C        25.6909340591        8.6207394812        8.7474659588
  C        25.7018905506        8.6287790057       11.5592329424
  C        38.3291673531       31.9622301744        2.1613520274
  C        37.6089627267       30.8884762869        2.9033757793
  C        36.6834457424       31.1958844519        3.9123084080
  C        36.0756985365       30.1762729426        4.6422090582
  C        36.3790581438       28.8240534594        4.3862731074
  C        37.2818822039       28.5267349292        3.3470933448
  C        37.8919844824       29.5427644900        2.6186994098
  C        35.7732127615       27.7238722270        5.1702349900
  C        35.7862988237       27.7153133110        6.5921314397
  C        36.4826407500       28.7044685135        7.3553416313
  C        46.1356887150       26.6208299049        7.2866080829
  C        46.0881261186       26.5803268995        4.4787277927
  C        22.4597996367        3.2558584501        2.2628802529
  C        23.1512670937        4.3653642225        2.9864496875
  C        24.1533560500        4.0810628718        3.9277154811
  C        24.7786477962        5.1124557276        4.6240954271
  C        24.4219441545        6.4575931988        4.4016834093
  C        23.4429030859        6.7351616892        3.4289481034
  C        22.8129140231        5.7040375786        2.7330996170
  C        25.0507625509        7.5565446267        5.1759865766
  C        25.0444763764        7.5497570802        6.5987469831
  C        24.3525240720        6.5519235209        7.3554921659
  C        26.6200243293       17.8599883671       13.7796947073
  C        25.3116359941       17.9035228569       13.0526977805
  C        25.0504393408       18.9069047469       12.1061547825
  C        23.8378305273       18.9297392483       11.4190604778
  C        22.8498609447       17.9521480193       11.6572194500
  C        23.1080878899       16.9707035550       12.6322431480
  C        24.3228386430       16.9430424105       13.3168425281
  C        21.5760846316       17.9408835888       10.8934943003
  C        21.5757345722       17.9206243019        9.4712053721
  C        22.7814671256       17.7976814871        8.7107736802
  C        34.4410204443       17.1929989262       13.9201835776
  C        35.7338002110       17.1447583617       13.1744142721
  C        35.9352948303       16.1798704587       12.1755621838
  C        37.1146209853       16.1670081951       11.4368177667
  C        38.1249281758       17.1171650100       11.6799150372
  C        37.9265335456       18.0628949891       12.7035804960
  C        36.7432132536       18.0820346138       13.4379808992
  C        39.3785385793       17.1261549514       10.8940306892
  C        39.3742985795       17.1413631009        9.4726482719
  C        38.1662269410       17.2551702621        8.7149952228
  C        20.3293878536       17.9384389855        8.7624590389
  C        20.3513713677       17.9432711046       11.5757806292
  C        34.4771521942       17.2467155839        2.1852980080
  C        35.7780391564       17.1768386619        2.9152528393
  C        36.0015821249       16.1774277050        3.8751497281
  C        37.1859361533       16.1593492681        4.6068385439
  C        38.1760081823       17.1393852089        4.3946042931
  C        37.9585876340       18.1132188086        3.4037017148
  C        36.7712800478       18.1365421842        2.6761863774
  C        39.4237572691       17.1550913850        5.1878751561
  C        39.3982747292       17.1574263884        6.6080383371
  C        38.1793244651       17.2621794374        7.3488049951
  C        35.1556278401       26.6361025768        7.2958778957
  C        35.1811110168       26.6545290211        4.4868540524
  C        26.5712010973       17.8226277732        2.3333698220
  C        25.2556060631       17.8740488184        3.0385000104
  C        24.9903940314       18.8827884676        3.9767813296
  C        23.7723356289       18.9105148177        4.6501096240
  C        22.7901645267       17.9294296417        4.4081063945
  C        23.0491044803       16.9460410293        3.4363192261
  C        24.2679815661       16.9163417560        2.7615531609
  C        21.5267811812       17.9122657856        5.1812565487
  C        21.5508371127       17.9046834558        6.6026557124
  C        22.7696559692       17.7901394552        7.3445383748
  C        14.0464483298       17.8290497595        2.2938675659
  C        15.3505492835       17.8869846136        3.0192672196
  C        15.6061162957       18.8910118370        3.9663060201
  C        16.8147645656       18.9130462117        4.6595737622
  C        17.8019408712       17.9339318628        4.4278536800
  C        17.5511435939       16.9541144273        3.4487118701
  C        16.3418981660       16.9274562515        2.7570006824
  C        19.0708067099       17.9184895275        5.1969919974
  C        19.0694112362       17.9166479274        6.6194438028
  C        17.8624347597       17.8175649269        7.3807456208
  C        46.8063753974       17.2204706830        2.1651875581
  C        45.5187286418       17.1642985992        2.9144938188
  C        45.3135291594       16.1917444185        3.9051517080
  C        44.1338040277       16.1801684475        4.6443401080
  C        43.1299959910       17.1410786385        4.4140255795
  C        43.3328923491       18.0937864397        3.3975108695
  C        44.5133644613       18.1094340606        2.6595815382
  C        41.8773868222       17.1555129484        5.2023355566
  C        41.8818942814       17.1524756533        6.6240508185
  C        43.0899901821       17.2484133432        7.3839259469
  C        20.3162212071       17.9291342175        7.3276622808
  C        20.2948503598       17.8993254562        4.5146980932
  C        46.7860719176       17.2305704718       13.8858505801
  C        45.4820044022       17.1244861272       13.1734834168
  C        45.2641386059       16.1297986088       12.2084380301
  C        44.0757411562       16.1057147196       11.4831568936
  C        43.0768646482       17.0728392051       11.7071197214
  C        43.2842668626       18.0358044671       12.7120529039
  C        44.4740493591       18.0667696620       13.4318272249
  C        41.8320116636       17.0994444241       10.9095923206
  C        41.8586433445       17.1222823413        9.4892307445
  C        43.0787187228       17.2317835264        8.7502672039
  C        46.1534426126       26.6372396488        8.7211554099
  C        46.1624606602       26.6560986819       11.5307995996
  C        14.0455625435       17.8320664882       13.7038796399
  C        15.3665659708       17.9076209948       13.0137502885
  C        15.6390548932       18.9238478151       12.0857649918
  C        16.8679080127       18.9624396448       11.4308214941
  C        17.8518414758       17.9840138093       11.6781103445
  C        17.5863115890       16.9969074360       12.6445922572
  C        16.3594191911       16.9577320804       13.3030044458
  C        19.1188628042       17.9604791242       10.9088351188
  C        19.0943508547       17.9369472221        9.4873855989
  C        17.8745846095       17.8266155849        8.7467351037
  C        28.8085382711       14.0935092888        2.3985945301
  C        28.1911878208       12.9208081222        3.0869562587
  C        28.9141265897       12.1717377624        4.0269777824
  C        28.3114214347       11.0984799509        4.6786315802
  C        26.9717867864       10.7495800683        4.4128047308
  C        26.2704399376       11.4784858294        3.4359621949
  C        26.8708990552       12.5524986581        2.7836282720
  C        26.3014405255        9.6698290939        5.1729904410
  C        26.2902644824        9.6955782854        6.5938607510
  C        26.7946465880       10.8082563223        7.3393944051
  C        32.1789428547       21.2419788713        2.1475861891
  C        32.7751977553       22.4079487004        2.8666950313
  C        32.0283611343       23.0873785714        3.8411866401
  C        32.6009272350       24.1241314974        4.5715401963
  C        33.9361144561       24.5107159935        4.3460237222
  C        34.6654744550       23.8508841228        3.3391775524
  C        34.0952949979       22.8077089150        2.6119952426
  C        34.5669701094       25.5845349219        5.1464489261
  C        34.5609701082       25.5540281942        6.5678635299
  C        34.0503452173       24.4392700608        7.3053279181
  C        25.6820535746        8.6172238183        7.3129466978
  C        25.6647498762        8.6193908561        4.4995229927
  C        32.1039922868       21.2263409679       13.8784524893
  C        32.6988372094       22.3734023457       13.1296165346
  C        31.9680233687       23.0284046331       12.1266038489
  C        32.5500628912       24.0579147262       11.3907028891
  C        33.8765458418       24.4614897986       11.6391677662
  C        34.5907738705       23.8181952498       12.6680185003
  C        34.0133619531       22.7835750946       13.3995484842
  C        34.5178976821       25.5425409992       10.8560484538
  C        34.5358412728       25.5327914102        9.4342365403
  C        34.0381639486       24.4293986824        8.6718698225
  C        40.6219127824       17.1231591809        8.7652857064
  C        40.6012817571       17.1209543854       11.5741232860
  C        28.7457622127       14.0663675084       13.8161235267
  C        28.1323711647       12.9200983548       13.0772297656
  C        28.8662786615       12.2275970484       12.1024582396
  C        28.2852494395       11.1718694394       11.4036344464
  C        26.9539541069       10.7828418717       11.6545443006
  C        26.2369955393       11.4635183204       12.6561013592
  C        26.8168732658       12.5196550243       13.3567280874
  C        26.3112587269        9.6929132496       10.8818700436
  C        26.2964528433        9.7074364759        9.4601619353
  C        26.7953116318       10.8152693367        8.7052139971
  C        18.1354316003        3.1810039918        2.3222627715
  C        17.4061383391        4.2782766905        3.0209074405
  C        16.3902516969        3.9999426470        3.9482304261
  C        15.7425224724        5.0399432640        4.6116954879
  C        16.0946356094        6.3836312137        4.3721819300
  C        17.0842320519        6.6531403890        3.4086468341
  C        17.7333166658        5.6157736347        2.7436235021
  C        15.4702934536        7.4913276618        5.1352222885
  C        15.4855433571        7.4906369970        6.5569364548
  C        16.1870412284        6.4969640485        7.3100880421
  C        42.9459396611       31.8595703495        2.0779501853
  C        43.6463628012       30.7719068028        2.8219552852
  C        44.5918910803       31.0932552093        3.8080065131
  C        45.1976101188       30.0877306653        4.5556996697
  C        44.8712054376       28.7346685488        4.3408242974
  C        43.9453583640       28.4202929550        3.3276500606
  C        43.3365330411       29.4254277411        2.5796059589
  C        45.4888124297       27.6553775233        5.1440120424
  C        45.4929560259       27.6809568794        6.5657069663
  C        44.8057878951       28.6889508673        7.3123307690
  C        14.8566024670        8.5631493127        7.2692952115
  C        14.8750619642        8.5631055570        4.4566181003
  C        42.9464821379       31.9615976542       13.8039142305
  C        43.6916639511       30.8854452436       13.0903237106
  C        44.6564279792       31.1913362157       12.1181980735
  C        45.2779514845       30.1717436313       11.4004684890
  C        44.9540299578       28.8214474011       11.6379966774
  C        44.0203171985       28.5237771838       12.6485498841
  C        43.3920637835       29.5405634013       13.3607113962
  C        45.5631101318       27.7240588566       10.8527473126
  C        45.5334114528       27.7173547628        9.4314515735
  C        44.8270467794       28.7075681029        8.6785151061
  C        35.1439555246       26.6244566252        8.7304897112
  C        35.1263898538       26.6017872522       11.5400273980
  C        18.1486240935        3.2469916849       13.7014142199
  C        17.4300372772        4.3438534234       12.9921060407
  C        16.4146262155        4.0525983652       12.0687607496
  C        15.7663104342        5.0832488953       11.3933939901
  C        16.1212176029        6.4284450569       11.6159365231
  C        17.1128324206        6.7118274048       12.5729418209
  C        17.7605062643        5.6828886508       13.2526741438
  C        15.4907132656        7.5241618236       10.8435165223
  C        15.4965498491        7.5075382950        9.4223821792
  C        16.1932496405        6.5057806831        8.6756950593
  H        10.6726297530       12.4659849938       11.8992598078
  H        11.6949248875       10.5511925267       10.6573653410
  H        15.3917904628       11.1686296800       12.7672414204
  H        14.3513131382       13.0713786335       14.0124255157
  H        13.3765886159       11.6313982599        9.1961860426
  H        50.3228497681       22.7483581285       11.9815822197
  H        49.3196628158       24.6228202387       10.6755854929
  H        45.6423518747       24.1613570530       12.8587907199
  H        46.6632749106       22.2904250307       14.1670175221
  H        47.6298698870       23.5758765406        9.2410819519
  H        14.8723539782        8.5883659013       12.6034220245
  H        50.2871184599       22.7023867718        4.0657898584
  H        49.2691705789       24.5752667430        5.3658410585
  H        45.6109879026       24.1098911052        3.1506229357
  H        46.6530650794       22.2545527802        1.8363472820
  H        47.6078796406       23.5518572850        6.8019720672
  H        40.6598972396       17.1441565784        3.4345908913
  H        48.6871105553       14.0949579351       15.7949074209
  H        10.6815056345       12.4669209314        4.0986994864
  H        11.6898416439       10.5250183342        5.3024312016
  H        15.3934704627       11.1587569671        3.2103222821
  H        14.3649421533       13.0871373298        1.9950688748
  H        13.3762077993       11.6223604763        6.7581962656
  H        47.9301325947       14.2186387895        1.7159547582
  H        47.7801670976       14.3741266130       14.4901857541
  H        49.0843349585       18.5528090668        2.8726373843
  H        10.4162231016       14.1342853727        0.0038249396
  H        24.4838829685        3.0292616928       11.9121719074
  H        25.6234949030        4.8896491929       10.6863149456
  H        23.2493391596        7.7545688665       12.8435050826
  H        22.1273930839        5.8845732768       14.0703786711
  H        23.8071845752        5.7932694467        9.2630413800
  H        36.3813615525       32.1835462105       11.9559851598
  H        35.2615231537       30.3558358642       10.6762905478
  H        37.5179090138       27.4373173091       12.8882099992
  H        38.6186185981       29.2777023225       14.1758151813
  H        37.0392371939       29.4412336381        9.2682006563
  H        25.7403991446        8.6100723852       12.6468991157
  H        36.4615047983       32.2398319764        4.1219261218
  H        35.3526963855       30.4198646528        5.4175386299
  H        37.5276803113       27.4867566061        3.1427694768
  H        38.6118451386       29.3183946644        1.8353983999
  H        37.0575658073       29.4616453694        6.8300074049
  H        46.1095699926       26.5877863789        3.3906938437
  H        44.6682304152       35.1162295254       15.8088262348
  H        24.4329485352        3.0433471193        4.0949854818
  H        25.5594765760        4.8853273620        5.3467801869
  H        23.1560728228        7.7691331390        3.2483264183
  H        22.0411535426        5.9152267722        1.9965245323
  H        23.7814694522        5.7957708980        6.8246081190
  H        44.9535338990       34.3901613188        1.7002006932
  H        44.9014194948       34.2065809195       14.4856846855
  H        40.6658865991       33.2090724236        2.8581910399
  H        23.1502458701        1.9580649226        0.0104733340
  H        25.8117858869       19.6644656294       11.9315099438
  H        23.6370484524       19.7155727254       10.6936923562
  H        22.3573040439       16.2068647039       12.8245452516
  H        24.5333797966       16.1723545188       14.0548311661
  H        23.7208378284       17.6768421315        9.2424571846
  H        35.1506111000       15.4506884307       11.9889023860
  H        37.2690002133       15.4127303999       10.6684892598
  H        38.6993113551       18.8049212505       12.8935937272
  H        36.5711845080       18.8265503997       14.2119226521
  H        37.2218087112       17.3625794595        9.2408418532
  H        20.3584042455       17.9823371519       12.6636709951
  H        35.2300043884       15.4256906853        4.0293901842
  H        37.3655739453       15.3795281488        5.3442659295
  H        38.7181343047       18.8742026435        3.2365749129
  H        36.5806389579       18.9039403268        1.9294979367
  H        37.2465621992       17.3815278693        6.8057833428
  H        35.1510258744       26.6819212578        3.3992594779
  H        28.5034227355       21.0742020931       15.9636908723
  H        25.7509364662       19.6383827980        4.1596131125
  H        23.5658356257       19.6972161151        5.3725848255
  H        22.2985705174       16.1821894998        3.2434308396
  H        24.4846452317       16.1457495131        2.0255060529
  H        23.7003604747       17.6643007146        6.7992557728
  H        29.0163000017       21.7131482444        1.7587445768
  H        29.1766102882       21.7290167153       14.6239821446
  H        32.1293649729       18.5540934582        2.9753695517
  H        27.3698508075       19.0236473771        0.0887016097
  H        14.8470766200       19.6496454528        4.1436369030
  H        17.0093497981       19.6978279604        5.3874339093
  H        18.3030435355       16.1903651922        3.2608447904
  H        16.1366544349       16.1577749655        2.0167607161
  H        16.9200176767       17.7012713313        6.8534860163
  H        46.0954423821       15.4585480019        4.0885571381
  H        43.9743587153       15.4181929504        5.4040834329
  H        42.5659181036       18.8439115260        3.2162292371
  H        44.6871452408       18.8591066321        1.8912399699
  H        44.0317634967       17.3672652139        6.8558213646
  H        20.2888251248       17.9278683633        3.4265333528
  H        46.0419501478       15.3913739731       12.0277960930
  H        43.9086822890       15.3351930154       10.7336629314
  H        42.5168894833       18.7860207371       12.8910436761
  H        44.6574071178       18.8297790773       14.1842687861
  H        44.0120789917       17.3367146363        9.2957814130
  H        46.1992766416       26.6826531780       12.6182461151
  H        52.7412038006       21.0626491404        0.1997895424
  H        14.8779090209       19.6770572474       11.8944632736
  H        17.0783906721       19.7533440104       10.7141108806
  H        18.3375488523       16.2352881229       12.8432983046
  H        16.1389554142       16.1826853334       14.0330056268
  H        16.9412662156       17.7173143242        9.2908384191
  H        52.3223590386       21.6733238373       14.2892616800
  H        52.0131724800       21.7020335890        1.5007520205
  H        49.0676510895       18.6078846700       13.1991314697
  H        13.2477668751       19.0163818296       15.9722931113
  H        29.9477594625       12.4439330271        4.2291780217
  H        28.8731219453       10.5157986896        5.4056291354
  H        25.2354895563       11.2184836690        3.2232417090
  H        26.3280138790       13.1365268338        2.0444671940
  H        27.1555489174       11.6770614318        6.7973302692
  H        31.0009547906       22.7783393055        4.0179629886
  H        32.0173654727       24.6497707772        5.3241539798
  H        35.6987193087       24.1410233341        3.1596902361
  H        34.6631870014       22.2721561624        1.8546102806
  H        33.6897553668       23.5721997051        6.7592213170
  H        25.6937894301        8.6006358118        3.4114808871
  H        30.9466916386       22.7109321903       11.9296106871
  H        31.9762978320       24.5676812370       10.6198324709
  H        35.6180501069       24.1181295938       12.8645760729
  H        34.5690903075       22.2645452364       14.1770701058
  H        33.6688932812       23.5544989046        9.1992534172
  H        40.5935194033       17.0795534721       12.6616207948
  H        32.5080233456       14.1446217786        0.2554675747
  H        29.8932528090       12.5318874968       11.9128008330
  H        28.8621230520       10.6294948998       10.6575891535
  H        25.2069242879       11.1758050395       12.8565290732
  H        26.2608301144       13.0611627331       14.1184410439
  H        27.1556845311       11.6894605233        9.2395175517
  H        33.3109969091       14.2314989565       14.4642019112
  H        33.4098593793       14.4170340457        1.5984855544
  H        32.1395374870       18.5258865786       13.2416958956
  H        30.2110332952       14.1861939717        0.0824652820
  H        16.1180682903        2.9634453707        4.1344832501
  H        14.9529343252        4.8205915146        5.3272106441
  H        17.3668680140        7.6859941470        3.2157201763
  H        18.5155118466        5.8183866968        2.0159383506
  H        16.7535716741        5.7396137944        6.7765698577
  H        44.8281180295       32.1403545415        3.9821828935
  H        45.9374511054       30.3415021130        5.3116636471
  H        43.6826358061       27.3782245484        3.1575836043
  H        42.5998695990       29.1900987746        1.8149885056
  H        44.2304135685       29.4366939718        6.7740146033
  H        14.8513479195        8.5463366557        3.3683985463
  H        44.9000709847       32.2340160318       11.9268556087
  H        46.0249716746       30.4129477128       10.6473337920
  H        43.7631970736       27.4840590352       12.8399575069
  H        42.6453872126       29.3177939391       14.1189861221
  H        44.2684975756       29.4704123211        9.2131212837
  H        35.0815932275       26.6150672753       12.6273877659
  H        36.6051635896       35.1340312732        0.1857587785
  H        16.1433779441        3.0130335092       11.8992116559
  H        14.9738218887        4.8564556751       10.6834720609
  H        17.3965758218        7.7472677182       12.7496268917
  H        18.5435970877        5.8933010783       13.9772169689
  H        16.7646452167        5.7555143749        9.2141447263
  H        36.2787452862       34.4822880806       14.2681463352
  H        36.3811810431       34.2090701183        1.5047927498
  H        40.5802185255       33.2025845071       13.1484834739
  H        17.4707903794        1.9476482979       15.9689844110
  H        28.8733733139       19.1363184812        4.4430046731
  H        29.9812138242       19.7183765644       11.6326289402
  H        31.8969268696       15.7749325817       11.5881639060
  H        31.3141653627       15.5883583661        4.5189577096
  H        28.3548911148       17.4756718155        6.8376271107
  H        29.6570095327       15.1263778299        6.4117276663
  H        31.7615513941       19.8692395874        9.6513080239
  H        33.0784726664       16.8214074971        9.4889387679
  H        28.8761079150       16.7752912043        9.3511259033
  H        18.8536157799        0.8690368580        4.3403919287
  H        40.5280260706       35.2289939497       11.9469418270
  H        42.3239373071       34.4187809085       11.5853443252
  H        22.0875694309        0.6922130317        4.3565609700
  H        11.5967977775       18.7127557545        4.3877028489
  H        52.2649161963       18.4310123806       11.6721268943
  H        49.2546689990       16.4774494011       11.5797906306
  H        10.1496851196       15.7982420629        4.2979540311
  H        50.8500273345       17.6924855565       11.9491277027
  H        10.0457978971       17.3945107125        4.0570525362
  H        20.2148688112        0.0022021565        4.0470304364
  H        39.1837344644       36.1244593232       11.6813086263
  H        32.3329143333       18.4058812038        6.8950702913
 Ni        30.8618406526       17.7205876622       10.9047690030
 Ni        31.1583759094       16.4218410203        7.9993407418
 Ni        29.9339080461       18.9870759597        8.1583082904
 Ni        30.3058409682       17.5062906094        5.2500367904
  O        10.6499848262       14.3651175043       13.4807198502
  O        12.6131932286       14.6575334142       14.5787898983
  O        49.1481234872       16.8458930432       15.9846226114
  O        50.3503141314       20.9358133713       13.6429497556
  O        48.3486255280       20.5933279530       14.6608119951
  O        11.0517874688       17.0538468996       14.4956141267
  O        50.3210994587       20.8816644195        2.4119340574
  O        48.3468085809       20.5868332827        1.3322523347