 DBCSR| CPU Multiplication driver                                           XSMM
 DBCSR| Multrec recursion limit                                              512
 DBCSR| Multiplication stack size                                           1000
 DBCSR| Maximum elements for images                                    UNLIMITED
 DBCSR| Multiplicative factor virtual images                                   1
 DBCSR| Use multiplication densification                                       T
 DBCSR| Multiplication size stacks                                             3
 DBCSR| Number of 3D layers                                               SINGLE
 DBCSR| Use MPI memory allocation                                              T
 DBCSR| Use RMA algorithm                                                      F
 DBCSR| Use Communication thread                                               T
 DBCSR| Communication thread load                                             87


  **** **** ******  **  PROGRAM STARTED AT               2021-11-27 08:12:32.293
 ***** ** ***  *** **   PROGRAM STARTED ON         node1937.palmetto.clemson.edu
 **    ****   ******    PROGRAM STARTED BY                               svicchi
 ***** **    ** ** **   PROGRAM PROCESS ID                               2279108
  **** **  *******  **  PROGRAM STARTED IN  /scratch2/svicchi/CP2K-4064463.pbs02

 CP2K| version string:                                          CP2K version 7.1
 CP2K| source code revision number:                                  git:e635599
 CP2K| cp2kflags: libint fftw3 libxc parallel mpi3 scalapack xsmm               
 CP2K| is freely available from                            https://www.cp2k.org/
 CP2K| Program compiled at                          Wed Aug 12 10:01:37 EDT 2020
 CP2K| Program compiled on                           util02.palmetto.clemson.edu
 CP2K| Program compiled for                          linux-centos8-ivybridge-gcc
 CP2K| Data directory path    /software/spackages/linux-centos8-ivybridge/gcc-8.
 CP2K| Input file name                073_Zr18_C264_Ni4_O105_H190_UKS-multi9.inp

 GLOBAL| Force Environment number                                              1
 GLOBAL| Basis set file name                                          BASIS_file
 GLOBAL| Potential file name                                     POTENTIALS_file
 GLOBAL| MM Potential file name                                     MM_POTENTIAL
 GLOBAL| Coordinate file name           073_Zr18_C264_Ni4_O105_H190_UKS-multi9.x
 GLOBAL| Method name                                                        CP2K
 GLOBAL| Project name                   info-264-073_Zr18_C264_Ni4_O105_H190_UKS
 GLOBAL| Preferred FFT library                                             FFTW3
 GLOBAL| Preferred diagonalization lib.                                       SL
 GLOBAL| Run type                                           VIBRATIONAL_ANALYSIS
 GLOBAL| All-to-all communication in single precision                          F
 GLOBAL| FFTs using library dependent lengths                                  F
 GLOBAL| Global print level                                               MEDIUM
 GLOBAL| MPI I/O enabled                                                       T
 GLOBAL| Total number of message passing processes                            16
 GLOBAL| Number of threads for this process                                    1
 GLOBAL| This output is from process                                           0
 GLOBAL| CPU model name                 Intel(R) Xeon(R) CPU E5-2665 0 @ 2.40GHz
 GLOBAL| CPUID                                                              1001

 MEMORY| system memory details [Kb]
 MEMORY|                        rank 0           min           max       average
 MEMORY| MemTotal            131713748     131713748     131713748     131713748
 MEMORY| MemFree             121460352     121460352     121460352     121460352
 MEMORY| Buffers                  6284          6284          6284          6284
 MEMORY| Cached                6320852       6320852       6320852       6320852
 MEMORY| Slab                   919480        919480        919480        919480
 MEMORY| SReclaimable           488108        488108        488108        488108
 MEMORY| MemLikelyFree       128275596     128275596     128275596     128275596


 *** Fundamental physical constants (SI units) ***

 *** Literature: B. J. Mohr and B. N. Taylor,
 ***             CODATA recommended values of the fundamental physical
 ***             constants: 2006, Web Version 5.1
 ***             http://physics.nist.gov/constants

 Speed of light in vacuum [m/s]                             2.99792458000000E+08
 Magnetic constant or permeability of vacuum [N/A**2]       1.25663706143592E-06
 Electric constant or permittivity of vacuum [F/m]          8.85418781762039E-12
 Planck constant (h) [J*s]                                  6.62606896000000E-34
 Planck constant (h-bar) [J*s]                              1.05457162825177E-34
 Elementary charge [C]                                      1.60217648700000E-19
 Electron mass [kg]                                         9.10938215000000E-31
 Electron g factor [ ]                                     -2.00231930436220E+00
 Proton mass [kg]                                           1.67262163700000E-27
 Fine-structure constant                                    7.29735253760000E-03
 Rydberg constant [1/m]                                     1.09737315685270E+07
 Avogadro constant [1/mol]                                  6.02214179000000E+23
 Boltzmann constant [J/K]                                   1.38065040000000E-23
 Atomic mass unit [kg]                                      1.66053878200000E-27
 Bohr radius [m]                                            5.29177208590000E-11

 *** Conversion factors ***

 [u] -> [a.u.]                                              1.82288848426455E+03
 [Angstrom] -> [Bohr] = [a.u.]                              1.88972613288564E+00
 [a.u.] = [Bohr] -> [Angstrom]                              5.29177208590000E-01
 [a.u.] -> [s]                                              2.41888432650478E-17
 [a.u.] -> [fs]                                             2.41888432650478E-02
 [a.u.] -> [J]                                              4.35974393937059E-18
 [a.u.] -> [N]                                              8.23872205491840E-08
 [a.u.] -> [K]                                              3.15774647902944E+05
 [a.u.] -> [kJ/mol]                                         2.62549961709828E+03
 [a.u.] -> [kcal/mol]                                       6.27509468713739E+02
 [a.u.] -> [Pa]                                             2.94210107994716E+13
 [a.u.] -> [bar]                                            2.94210107994716E+08
 [a.u.] -> [atm]                                            2.90362800883016E+08
 [a.u.] -> [eV]                                             2.72113838565563E+01
 [a.u.] -> [Hz]                                             6.57968392072181E+15
 [a.u.] -> [1/cm] (wave numbers)                            2.19474631370540E+05
 [a.u./Bohr**2] -> [1/cm]                                   5.14048714338585E+03
 

 CELL_TOP| Volume [angstrom^3]:                                        22838.217
 CELL_TOP| Vector a [angstrom    40.611     0.000     0.000    |a| =      40.611
 CELL_TOP| Vector b [angstrom    20.305    35.170     0.000    |b| =      40.611
 CELL_TOP| Vector c [angstrom     0.000     0.000    15.990    |c| =      15.990
 CELL_TOP| Angle (b,c), alpha [degree]:                                   90.000
 CELL_TOP| Angle (a,c), beta  [degree]:                                   90.000
 CELL_TOP| Angle (a,b), gamma [degree]:                                   60.000
 CELL_TOP| Requested initial symmetry:                       MONOCLINIC_GAMMA_AB
 CELL_TOP| Numerically orthorhombic:                                          NO

 CELL| Volume [angstrom^3]:                                            22838.217
 CELL| Vector a [angstrom]:      40.611     0.000     0.000    |a| =      40.611
 CELL| Vector b [angstrom]:      20.305    35.170     0.000    |b| =      40.611
 CELL| Vector c [angstrom]:       0.000     0.000    15.990    |c| =      15.990
 CELL| Angle (b,c), alpha [degree]:                                       90.000
 CELL| Angle (a,c), beta  [degree]:                                       90.000
 CELL| Angle (a,b), gamma [degree]:                                       60.000
 CELL| Requested initial symmetry:                           MONOCLINIC_GAMMA_AB
 CELL| Numerically orthorhombic:                                              NO

 CELL_REF| Volume [angstrom^3]:                                        22838.217
 CELL_REF| Vector a [angstrom    40.611     0.000     0.000    |a| =      40.611
 CELL_REF| Vector b [angstrom    20.305    35.170     0.000    |b| =      40.611
 CELL_REF| Vector c [angstrom     0.000     0.000    15.990    |c| =      15.990
 CELL_REF| Angle (b,c), alpha [degree]:                                   90.000
 CELL_REF| Angle (a,c), beta  [degree]:                                   90.000
 CELL_REF| Angle (a,b), gamma [degree]:                                   60.000
 CELL_REF| Requested initial symmetry:                       MONOCLINIC_GAMMA_AB
 CELL_REF| Numerically orthorhombic:                                          NO

 *******************************************************************************
 *******************************************************************************
 **                                                                           **
 **     #####                         ##              ##                      **
 **    ##   ##            ##          ##              ##                      **
 **   ##     ##                       ##            ######                    **
 **   ##     ##  ##   ##  ##   #####  ##  ##   ####   ##    #####    #####    **
 **   ##     ##  ##   ##  ##  ##      ## ##   ##      ##   ##   ##  ##   ##   **
 **   ##  ## ##  ##   ##  ##  ##      ####     ###    ##   ######   ######    **
 **    ##  ###   ##   ##  ##  ##      ## ##      ##   ##   ##       ##        **
 **     #######   #####   ##   #####  ##  ##  ####    ##    #####   ##        **
 **           ##                                                    ##        **
 **                                                                           **
 **                                                ... make the atoms dance   **
 **                                                                           **
 **            Copyright (C) by CP2K developers group (2000 - 2019)           **
 **                                                                           **
 *******************************************************************************

 DFT| Spin unrestricted (spin-polarized) Kohn-Sham calculation               UKS
 DFT| Multiplicity                                                             9
 DFT| Number of spin states                                                    2
 DFT| Charge                                                                   0
 DFT| Self-interaction correction (SIC)                                       NO
 DFT| Cutoffs: density                                              1.000000E-10
 DFT|          gradient                                             1.000000E-10
 DFT|          tau                                                  1.000000E-10
 DFT|          cutoff_smoothing_range                               0.000000E+00
 DFT| XC density smoothing                                                  NONE
 DFT| XC derivatives                                                          PW
 FUNCTIONAL| ROUTINE=NEW
 FUNCTIONAL| PBE:
 FUNCTIONAL| J.P.Perdew, K.Burke, M.Ernzerhof, Phys. Rev. Letter, vol. 77, n 18,
 FUNCTIONAL|  pp. 3865-3868, (1996){spin polarized}                             
 vdW POTENTIAL|                                                   Pair Potential
 vdW POTENTIAL|          DFT-D3 (Version 3.1)
 vdW POTENTIAL|          Potential Form: S. Grimme et al, JCP 132: 154104 (2010)
 vdW POTENTIAL|          BJ Damping: S. Grimme et al, JCC 32: 1456 (2011)
 vdW POTENTIAL|          Cutoff Radius [Bohr]:                             20.00
 vdW POTENTIAL|          s6 Scaling Factor:                               1.0000
 vdW POTENTIAL|          a1 Damping Factor:                               0.4289
 vdW POTENTIAL|          s8 Scaling Factor:                               0.7875
 vdW POTENTIAL|          a2 Damping Factor:                               4.4407
 vdW POTENTIAL|          Cutoff for CN calculation:                   0.1000E-05

 QS| Method:                                                                 GPW
 QS| Density plane wave grid type                        NON-SPHERICAL FULLSPACE
 QS| Number of grid levels:                                                    5
 QS| Density cutoff [a.u.]:                                                180.0
 QS| Multi grid cutoff [a.u.]: 1) grid level                               180.0
 QS|                           2) grid level                                60.0
 QS|                           3) grid level                                20.0
 QS|                           4) grid level                                 6.7
 QS|                           5) grid level                                 2.2
 QS| Grid level progression factor:                                          3.0
 QS| Relative density cutoff [a.u.]:                                        40.0
 QS| Consistent realspace mapping and integration 
 QS| Interaction thresholds: eps_pgf_orb:                                1.0E-05
 QS|                         eps_filter_matrix:                          0.0E+00
 QS|                         eps_core_charge:                            1.0E-12
 QS|                         eps_rho_gspace:                             1.0E-10
 QS|                         eps_rho_rspace:                             1.0E-10
 QS|                         eps_gvg_rspace:                             1.0E-05
 QS|                         eps_ppl:                                    1.0E-02
 QS|                         eps_ppnl:                                   1.0E-07


 ATOMIC KIND INFORMATION

  1. Atomic kind: C                                     Number of atoms:     264

     Orbital Basis Set                                     DZVP-MOLOPT-SR-GTH-q4

       Number of orbital shell sets:                                           1
       Number of orbital shells:                                               5
       Number of primitive Cartesian functions:                                5
       Number of Cartesian basis functions:                                   14
       Number of spherical basis functions:                                   13
       Norm type:                                                              2

       Normalised Cartesian orbitals:

                        Set   Shell   Orbital            Exponent    Coefficient

                          1       1    2s                5.605331       0.322515
                                                         2.113016       0.213043
                                                         0.769911      -0.209686
                                                         0.348157      -0.219794
                                                         0.128212      -0.022789

                          1       2    3s                5.605331       0.552234
                                                         2.113016       0.082072
                                                         0.769911       0.007843
                                                         0.348157       0.136893
                                                         0.128212       0.074283

                          1       3    3px               5.605331      -0.703879
                                                         2.113016      -0.642521
                                                         0.769911      -0.374851
                                                         0.348157      -0.139743
                                                         0.128212      -0.027849
                          1       3    3py               5.605331      -0.703879
                                                         2.113016      -0.642521
                                                         0.769911      -0.374851
                                                         0.348157      -0.139743
                                                         0.128212      -0.027849
                          1       3    3pz               5.605331      -0.703879
                                                         2.113016      -0.642521
                                                         0.769911      -0.374851
                                                         0.348157      -0.139743
                                                         0.128212      -0.027849

                          1       4    4px               5.605331      -0.480376
                                                         2.113016      -0.552894
                                                         0.769911      -0.316145
                                                         0.348157       0.210505
                                                         0.128212       0.076095
                          1       4    4py               5.605331      -0.480376
                                                         2.113016      -0.552894
                                                         0.769911      -0.316145
                                                         0.348157       0.210505
                                                         0.128212       0.076095
                          1       4    4pz               5.605331      -0.480376
                                                         2.113016      -0.552894
                                                         0.769911      -0.316145
                                                         0.348157       0.210505
                                                         0.128212       0.076095

                          1       5    4dx2              5.605331       0.640026
                                                         2.113016       0.274300
                                                         0.769911       0.446711
                                                         0.348157       0.028674
                                                         0.128212       0.029790
                          1       5    4dxy              5.605331       1.108557
                                                         2.113016       0.475102
                                                         0.769911       0.773726
                                                         0.348157       0.049666
                                                         0.128212       0.051599
                          1       5    4dxz              5.605331       1.108557
                                                         2.113016       0.475102
                                                         0.769911       0.773726
                                                         0.348157       0.049666
                                                         0.128212       0.051599
                          1       5    4dy2              5.605331       0.640026
                                                         2.113016       0.274300
                                                         0.769911       0.446711
                                                         0.348157       0.028674
                                                         0.128212       0.029790
                          1       5    4dyz              5.605331       1.108557
                                                         2.113016       0.475102
                                                         0.769911       0.773726
                                                         0.348157       0.049666
                                                         0.128212       0.051599
                          1       5    4dz2              5.605331       0.640026
                                                         2.113016       0.274300
                                                         0.769911       0.446711
                                                         0.348157       0.028674
                                                         0.128212       0.029790

     GTH Potential information for                                    GTH-PBE-q4

       Description:                       Goedecker-Teter-Hutter pseudopotential
                                           Goedecker et al., PRB 54, 1703 (1996)
                                          Hartwigsen et al., PRB 58, 3641 (1998)
                                                      Krack, TCA 114, 145 (2005)

       Gaussian exponent of the core charge distribution:               4.364419
       Electronic configuration (s p d ...):                               2   2

       Parameters of the local part of the GTH pseudopotential:

                          rloc        C1          C2          C3          C4
                        0.338471   -8.803674    1.339211

       Parameters of the non-local part of the GTH pseudopotential:

                   l      r(l)      h(i,j,l)

                   0    0.302576    9.622487
                   1    0.291507

  2. Atomic kind: H                                     Number of atoms:     190

     Orbital Basis Set                                     DZVP-MOLOPT-SR-GTH-q1

       Number of orbital shell sets:                                           1
       Number of orbital shells:                                               3
       Number of primitive Cartesian functions:                                5
       Number of Cartesian basis functions:                                    5
       Number of spherical basis functions:                                    5
       Norm type:                                                              2

       Normalised Cartesian orbitals:

                        Set   Shell   Orbital            Exponent    Coefficient

                          1       1    2s               10.068468      -0.133023
                                                         2.680223      -0.177618
                                                         0.791502      -0.258419
                                                         0.239116      -0.107525
                                                         0.082193      -0.014019

                          1       2    3s               10.068468       0.344673
                                                         2.680223       1.819821
                                                         0.791502      -0.999069
                                                         0.239116       0.017430
                                                         0.082193       0.082660

                          1       3    3px              10.068468       0.155326
                                                         2.680223       0.367157
                                                         0.791502       0.311480
                                                         0.239116       0.080105
                                                         0.082193       0.033440
                          1       3    3py              10.068468       0.155326
                                                         2.680223       0.367157
                                                         0.791502       0.311480
                                                         0.239116       0.080105
                                                         0.082193       0.033440
                          1       3    3pz              10.068468       0.155326
                                                         2.680223       0.367157
                                                         0.791502       0.311480
                                                         0.239116       0.080105
                                                         0.082193       0.033440

     GTH Potential information for                                    GTH-PBE-q1

       Description:                       Goedecker-Teter-Hutter pseudopotential
                                           Goedecker et al., PRB 54, 1703 (1996)
                                          Hartwigsen et al., PRB 58, 3641 (1998)
                                                      Krack, TCA 114, 145 (2005)

       Gaussian exponent of the core charge distribution:              12.500000
       Electronic configuration (s p d ...):                                   1

       Parameters of the local part of the GTH pseudopotential:

                          rloc        C1          C2          C3          C4
                        0.200000   -4.178900    0.724463

  3. Atomic kind: Ni                                    Number of atoms:       4

     Orbital Basis Set                                    DZVP-MOLOPT-SR-GTH-q18

       Number of orbital shell sets:                                           1
       Number of orbital shells:                                               8
       Number of primitive Cartesian functions:                                6
       Number of Cartesian basis functions:                                   31
       Number of spherical basis functions:                                   26
       Norm type:                                                              2

       Normalised Cartesian orbitals:

                        Set   Shell   Orbital            Exponent    Coefficient

                          1       1    2s               10.077428      -0.684558
                                                         5.847736      -0.844524
                                                         2.494033       1.088856
                                                         0.988355       0.395503
                                                         0.344978       0.010224
                                                         0.099466      -0.003250

                          1       2    3s               10.077428       0.096747
                                                         5.847736       0.162504
                                                         2.494033      -0.297192
                                                         0.988355      -0.319752
                                                         0.344978       0.088318
                                                         0.099466       0.118587

                          1       3    4s               10.077428       0.036437
                                                         5.847736      -0.381480
                                                         2.494033       0.003759
                                                         0.988355      -1.048256
                                                         0.344978       0.855825
                                                         0.099466      -0.176350

                          1       4    3px              10.077428      -3.133913
                                                         5.847736       3.027656
                                                         2.494033       2.353227
                                                         0.988355       0.554184
                                                         0.344978       0.019462
                                                         0.099466      -0.000291
                          1       4    3py              10.077428      -3.133913
                                                         5.847736       3.027656
                                                         2.494033       2.353227
                                                         0.988355       0.554184
                                                         0.344978       0.019462
                                                         0.099466      -0.000291
                          1       4    3pz              10.077428      -3.133913
                                                         5.847736       3.027656
                                                         2.494033       2.353227
                                                         0.988355       0.554184
                                                         0.344978       0.019462
                                                         0.099466      -0.000291

                          1       5    4px              10.077428      -0.112729
                                                         5.847736      -0.114008
                                                         2.494033      -0.347303
                                                         0.988355      -0.110323
                                                         0.344978       0.154096
                                                         0.099466       0.058386
                          1       5    4py              10.077428      -0.112729
                                                         5.847736      -0.114008
                                                         2.494033      -0.347303
                                                         0.988355      -0.110323
                                                         0.344978       0.154096
                                                         0.099466       0.058386
                          1       5    4pz              10.077428      -0.112729
                                                         5.847736      -0.114008
                                                         2.494033      -0.347303
                                                         0.988355      -0.110323
                                                         0.344978       0.154096
                                                         0.099466       0.058386

                          1       6    4dx2             10.077428       8.232726
                                                         5.847736       9.105758
                                                         2.494033       2.849835
                                                         0.988355       0.554319
                                                         0.344978       0.067245
                                                         0.099466       0.001940
                          1       6    4dxy             10.077428      14.259500
                                                         5.847736      15.771636
                                                         2.494033       4.936060
                                                         0.988355       0.960109
                                                         0.344978       0.116472
                                                         0.099466       0.003360
                          1       6    4dxz             10.077428      14.259500
                                                         5.847736      15.771636
                                                         2.494033       4.936060
                                                         0.988355       0.960109
                                                         0.344978       0.116472
                                                         0.099466       0.003360
                          1       6    4dy2             10.077428       8.232726
                                                         5.847736       9.105758
                                                         2.494033       2.849835
                                                         0.988355       0.554319
                                                         0.344978       0.067245
                                                         0.099466       0.001940
                          1       6    4dyz             10.077428      14.259500
                                                         5.847736      15.771636
                                                         2.494033       4.936060
                                                         0.988355       0.960109
                                                         0.344978       0.116472
                                                         0.099466       0.003360
                          1       6    4dz2             10.077428       8.232726
                                                         5.847736       9.105758
                                                         2.494033       2.849835
                                                         0.988355       0.554319
                                                         0.344978       0.067245
                                                         0.099466       0.001940

                          1       7    5dx2             10.077428      -2.715373
                                                         5.847736      -4.020640
                                                         2.494033      -1.397569
                                                         0.988355      -0.076143
                                                         0.344978       0.033435
                                                         0.099466       0.026032
                          1       7    5dxy             10.077428      -4.703164
                                                         5.847736      -6.963952
                                                         2.494033      -2.420661
                                                         0.988355      -0.131883
                                                         0.344978       0.057911
                                                         0.099466       0.045088
                          1       7    5dxz             10.077428      -4.703164
                                                         5.847736      -6.963952
                                                         2.494033      -2.420661
                                                         0.988355      -0.131883
                                                         0.344978       0.057911
                                                         0.099466       0.045088
                          1       7    5dy2             10.077428      -2.715373
                                                         5.847736      -4.020640
                                                         2.494033      -1.397569
                                                         0.988355      -0.076143
                                                         0.344978       0.033435
                                                         0.099466       0.026032
                          1       7    5dyz             10.077428      -4.703164
                                                         5.847736      -6.963952
                                                         2.494033      -2.420661
                                                         0.988355      -0.131883
                                                         0.344978       0.057911
                                                         0.099466       0.045088
                          1       7    5dz2             10.077428      -2.715373
                                                         5.847736      -4.020640
                                                         2.494033      -1.397569
                                                         0.988355      -0.076143
                                                         0.344978       0.033435
                                                         0.099466       0.026032

                          1       8    5fx3             10.077428      -0.467694
                                                         5.847736       0.618100
                                                         2.494033       0.066069
                                                         0.988355       0.262898
                                                         0.344978       0.004720
                                                         0.099466       0.007748
                          1       8    5fx2y            10.077428      -1.045795
                                                         5.847736       1.382114
                                                         2.494033       0.147734
                                                         0.988355       0.587859
                                                         0.344978       0.010555
                                                         0.099466       0.017325
                          1       8    5fx2z            10.077428      -1.045795
                                                         5.847736       1.382114
                                                         2.494033       0.147734
                                                         0.988355       0.587859
                                                         0.344978       0.010555
                                                         0.099466       0.017325
                          1       8    5fxy2            10.077428      -1.045795
                                                         5.847736       1.382114
                                                         2.494033       0.147734
                                                         0.988355       0.587859
                                                         0.344978       0.010555
                                                         0.099466       0.017325
                          1       8    5fxyz            10.077428      -1.811371
                                                         5.847736       2.393892
                                                         2.494033       0.255883
                                                         0.988355       1.018201
                                                         0.344978       0.018282
                                                         0.099466       0.030008
                          1       8    5fxz2            10.077428      -1.045795
                                                         5.847736       1.382114
                                                         2.494033       0.147734
                                                         0.988355       0.587859
                                                         0.344978       0.010555
                                                         0.099466       0.017325
                          1       8    5fy3             10.077428      -0.467694
                                                         5.847736       0.618100
                                                         2.494033       0.066069
                                                         0.988355       0.262898
                                                         0.344978       0.004720
                                                         0.099466       0.007748
                          1       8    5fy2z            10.077428      -1.045795
                                                         5.847736       1.382114
                                                         2.494033       0.147734
                                                         0.988355       0.587859
                                                         0.344978       0.010555
                                                         0.099466       0.017325
                          1       8    5fyz2            10.077428      -1.045795
                                                         5.847736       1.382114
                                                         2.494033       0.147734
                                                         0.988355       0.587859
                                                         0.344978       0.010555
                                                         0.099466       0.017325
                          1       8    5fz3             10.077428      -0.467694
                                                         5.847736       0.618100
                                                         2.494033       0.066069
                                                         0.988355       0.262898
                                                         0.344978       0.004720
                                                         0.099466       0.007748

     GTH Potential information for                                   GTH-PBE-q18

       Description:                       Goedecker-Teter-Hutter pseudopotential
                                           Goedecker et al., PRB 54, 1703 (1996)
                                          Hartwigsen et al., PRB 58, 3641 (1998)
                                                      Krack, TCA 114, 145 (2005)

       Gaussian exponent of the core charge distribution:               4.081633
       Electronic configuration (s p d ...):                           4   6   8

       Parameters of the local part of the GTH pseudopotential:

                          rloc        C1          C2          C3          C4
                        0.350000    2.102166    0.648484

       Parameters of the non-local part of the GTH pseudopotential:

                   l      r(l)      h(i,j,l)

                   0    0.261295    0.622658    9.970227
                                    9.970227  -12.871507
                   1    0.224253  -11.142708   12.429566
                                   12.429566  -14.706861
                   2    0.215348  -12.628146

  4. Atomic kind: O                                     Number of atoms:     105

     Orbital Basis Set                                     DZVP-MOLOPT-SR-GTH-q6

       Number of orbital shell sets:                                           1
       Number of orbital shells:                                               5
       Number of primitive Cartesian functions:                                5
       Number of Cartesian basis functions:                                   14
       Number of spherical basis functions:                                   13
       Norm type:                                                              2

       Normalised Cartesian orbitals:

                        Set   Shell   Orbital            Exponent    Coefficient

                          1       1    2s               10.389228       0.396646
                                                         3.849621       0.208811
                                                         1.388401      -0.301641
                                                         0.496955      -0.274061
                                                         0.162492      -0.033677

                          1       2    3s               10.389228       0.303673
                                                         3.849621       0.240943
                                                         1.388401      -0.313066
                                                         0.496955      -0.043055
                                                         0.162492       0.213991

                          1       3    3px              10.389228      -1.530415
                                                         3.849621      -1.371928
                                                         1.388401      -0.761951
                                                         0.496955      -0.253695
                                                         0.162492      -0.035541
                          1       3    3py              10.389228      -1.530415
                                                         3.849621      -1.371928
                                                         1.388401      -0.761951
                                                         0.496955      -0.253695
                                                         0.162492      -0.035541
                          1       3    3pz              10.389228      -1.530415
                                                         3.849621      -1.371928
                                                         1.388401      -0.761951
                                                         0.496955      -0.253695
                                                         0.162492      -0.035541

                          1       4    4px              10.389228      -0.565392
                                                         3.849621      -0.038231
                                                         1.388401      -0.382373
                                                         0.496955       0.179070
                                                         0.162492       0.122714
                          1       4    4py              10.389228      -0.565392
                                                         3.849621      -0.038231
                                                         1.388401      -0.382373
                                                         0.496955       0.179070
                                                         0.162492       0.122714
                          1       4    4pz              10.389228      -0.565392
                                                         3.849621      -0.038231
                                                         1.388401      -0.382373
                                                         0.496955       0.179070
                                                         0.162492       0.122714

                          1       5    4dx2             10.389228       1.867377
                                                         3.849621       0.670994
                                                         1.388401       1.353441
                                                         0.496955       0.273538
                                                         0.162492       0.006620
                          1       5    4dxy             10.389228       3.234392
                                                         3.849621       1.162195
                                                         1.388401       2.344229
                                                         0.496955       0.473781
                                                         0.162492       0.011466
                          1       5    4dxz             10.389228       3.234392
                                                         3.849621       1.162195
                                                         1.388401       2.344229
                                                         0.496955       0.473781
                                                         0.162492       0.011466
                          1       5    4dy2             10.389228       1.867377
                                                         3.849621       0.670994
                                                         1.388401       1.353441
                                                         0.496955       0.273538
                                                         0.162492       0.006620
                          1       5    4dyz             10.389228       3.234392
                                                         3.849621       1.162195
                                                         1.388401       2.344229
                                                         0.496955       0.473781
                                                         0.162492       0.011466
                          1       5    4dz2             10.389228       1.867377
                                                         3.849621       0.670994
                                                         1.388401       1.353441
                                                         0.496955       0.273538
                                                         0.162492       0.006620

     GTH Potential information for                                    GTH-PBE-q6

       Description:                       Goedecker-Teter-Hutter pseudopotential
                                           Goedecker et al., PRB 54, 1703 (1996)
                                          Hartwigsen et al., PRB 58, 3641 (1998)
                                                      Krack, TCA 114, 145 (2005)

       Gaussian exponent of the core charge distribution:               8.360253
       Electronic configuration (s p d ...):                               2   4

       Parameters of the local part of the GTH pseudopotential:

                          rloc        C1          C2          C3          C4
                        0.244554  -16.667215    2.487311

       Parameters of the non-local part of the GTH pseudopotential:

                   l      r(l)      h(i,j,l)

                   0    0.220956   18.337458
                   1    0.211332

  5. Atomic kind: Zr                                    Number of atoms:      18

     Orbital Basis Set                                    DZVP-MOLOPT-SR-GTH-q12

       Number of orbital shell sets:                                           1
       Number of orbital shells:                                               8
       Number of primitive Cartesian functions:                                7
       Number of Cartesian basis functions:                                   31
       Number of spherical basis functions:                                   26
       Norm type:                                                              2

       Normalised Cartesian orbitals:

                        Set   Shell   Orbital            Exponent    Coefficient

                          1       1    2s                7.568386      -0.292925
                                                         2.940870       1.053802
                                                         1.478550      -0.194175
                                                         0.699653      -0.477593
                                                         0.314575      -0.092850
                                                         0.129869       0.000474
                                                         0.046851      -0.000485

                          1       2    3s                7.568386      -0.107602
                                                         2.940870       0.453694
                                                         1.478550      -0.133469
                                                         0.699653      -0.242646
                                                         0.314575      -0.112324
                                                         0.129869       0.079936
                                                         0.046851       0.057275

                          1       3    4s                7.568386      -0.039443
                                                         2.940870      -0.239516
                                                         1.478550       0.462939
                                                         0.699653       0.054202
                                                         0.314575       0.378792
                                                         0.129869      -0.467495
                                                         0.046851       0.135277

                          1       4    3px               7.568386      -0.367032
                                                         2.940870       1.199938
                                                         1.478550      -0.729727
                                                         0.699653      -0.527717
                                                         0.314575      -0.102074
                                                         0.129869      -0.002163
                                                         0.046851      -0.000016
                          1       4    3py               7.568386      -0.367032
                                                         2.940870       1.199938
                                                         1.478550      -0.729727
                                                         0.699653      -0.527717
                                                         0.314575      -0.102074
                                                         0.129869      -0.002163
                                                         0.046851      -0.000016
                          1       4    3pz               7.568386      -0.367032
                                                         2.940870       1.199938
                                                         1.478550      -0.729727
                                                         0.699653      -0.527717
                                                         0.314575      -0.102074
                                                         0.129869      -0.002163
                                                         0.046851      -0.000016

                          1       5    4px               7.568386      -0.041149
                                                         2.940870       0.296409
                                                         1.478550      -0.285807
                                                         0.699653      -0.254468
                                                         0.314575       0.008755
                                                         0.129869       0.053085
                                                         0.046851       0.019526
                          1       5    4py               7.568386      -0.041149
                                                         2.940870       0.296409
                                                         1.478550      -0.285807
                                                         0.699653      -0.254468
                                                         0.314575       0.008755
                                                         0.129869       0.053085
                                                         0.046851       0.019526
                          1       5    4pz               7.568386      -0.041149
                                                         2.940870       0.296409
                                                         1.478550      -0.285807
                                                         0.699653      -0.254468
                                                         0.314575       0.008755
                                                         0.129869       0.053085
                                                         0.046851       0.019526

                          1       6    4dx2              7.568386      -0.104612
                                                         2.940870      -0.141339
                                                         1.478550       0.540679
                                                         0.699653       0.284252
                                                         0.314575       0.094561
                                                         0.129869       0.012195
                                                         0.046851       0.000412
                          1       6    4dxy              7.568386      -0.181193
                                                         2.940870      -0.244806
                                                         1.478550       0.936483
                                                         0.699653       0.492339
                                                         0.314575       0.163785
                                                         0.129869       0.021122
                                                         0.046851       0.000713
                          1       6    4dxz              7.568386      -0.181193
                                                         2.940870      -0.244806
                                                         1.478550       0.936483
                                                         0.699653       0.492339
                                                         0.314575       0.163785
                                                         0.129869       0.021122
                                                         0.046851       0.000713
                          1       6    4dy2              7.568386      -0.104612
                                                         2.940870      -0.141339
                                                         1.478550       0.540679
                                                         0.699653       0.284252
                                                         0.314575       0.094561
                                                         0.129869       0.012195
                                                         0.046851       0.000412
                          1       6    4dyz              7.568386      -0.181193
                                                         2.940870      -0.244806
                                                         1.478550       0.936483
                                                         0.699653       0.492339
                                                         0.314575       0.163785
                                                         0.129869       0.021122
                                                         0.046851       0.000713
                          1       6    4dz2              7.568386      -0.104612
                                                         2.940870      -0.141339
                                                         1.478550       0.540679
                                                         0.699653       0.284252
                                                         0.314575       0.094561
                                                         0.129869       0.012195
                                                         0.046851       0.000412

                          1       7    5dx2              7.568386      -0.107600
                                                         2.940870       0.230973
                                                         1.478550      -0.200541
                                                         0.699653      -0.193347
                                                         0.314575       0.007888
                                                         0.129869       0.006706
                                                         0.046851       0.006900
                          1       7    5dxy              7.568386      -0.186369
                                                         2.940870       0.400056
                                                         1.478550      -0.347346
                                                         0.699653      -0.334887
                                                         0.314575       0.013663
                                                         0.129869       0.011615
                                                         0.046851       0.011951
                          1       7    5dxz              7.568386      -0.186369
                                                         2.940870       0.400056
                                                         1.478550      -0.347346
                                                         0.699653      -0.334887
                                                         0.314575       0.013663
                                                         0.129869       0.011615
                                                         0.046851       0.011951
                          1       7    5dy2              7.568386      -0.107600
                                                         2.940870       0.230973
                                                         1.478550      -0.200541
                                                         0.699653      -0.193347
                                                         0.314575       0.007888
                                                         0.129869       0.006706
                                                         0.046851       0.006900
                          1       7    5dyz              7.568386      -0.186369
                                                         2.940870       0.400056
                                                         1.478550      -0.347346
                                                         0.699653      -0.334887
                                                         0.314575       0.013663
                                                         0.129869       0.011615
                                                         0.046851       0.011951
                          1       7    5dz2              7.568386      -0.107600
                                                         2.940870       0.230973
                                                         1.478550      -0.200541
                                                         0.699653      -0.193347
                                                         0.314575       0.007888
                                                         0.129869       0.006706
                                                         0.046851       0.006900

                          1       8    5fx3              7.568386       0.371480
                                                         2.940870      -0.155968
                                                         1.478550      -0.211323
                                                         0.699653      -0.255968
                                                         0.314575      -0.046738
                                                         0.129869      -0.005674
                                                         0.046851       0.000171
                          1       8    5fx2y             7.568386       0.830655
                                                         2.940870      -0.348756
                                                         1.478550      -0.472533
                                                         0.699653      -0.572361
                                                         0.314575      -0.104510
                                                         0.129869      -0.012687
                                                         0.046851       0.000382
                          1       8    5fx2z             7.568386       0.830655
                                                         2.940870      -0.348756
                                                         1.478550      -0.472533
                                                         0.699653      -0.572361
                                                         0.314575      -0.104510
                                                         0.129869      -0.012687
                                                         0.046851       0.000382
                          1       8    5fxy2             7.568386       0.830655
                                                         2.940870      -0.348756
                                                         1.478550      -0.472533
                                                         0.699653      -0.572361
                                                         0.314575      -0.104510
                                                         0.129869      -0.012687
                                                         0.046851       0.000382
                          1       8    5fxyz             7.568386       1.438737
                                                         2.940870      -0.604063
                                                         1.478550      -0.818452
                                                         0.699653      -0.991359
                                                         0.314575      -0.181017
                                                         0.129869      -0.021975
                                                         0.046851       0.000662
                          1       8    5fxz2             7.568386       0.830655
                                                         2.940870      -0.348756
                                                         1.478550      -0.472533
                                                         0.699653      -0.572361
                                                         0.314575      -0.104510
                                                         0.129869      -0.012687
                                                         0.046851       0.000382
                          1       8    5fy3              7.568386       0.371480
                                                         2.940870      -0.155968
                                                         1.478550      -0.211323
                                                         0.699653      -0.255968
                                                         0.314575      -0.046738
                                                         0.129869      -0.005674
                                                         0.046851       0.000171
                          1       8    5fy2z             7.568386       0.830655
                                                         2.940870      -0.348756
                                                         1.478550      -0.472533
                                                         0.699653      -0.572361
                                                         0.314575      -0.104510
                                                         0.129869      -0.012687
                                                         0.046851       0.000382
                          1       8    5fyz2             7.568386       0.830655
                                                         2.940870      -0.348756
                                                         1.478550      -0.472533
                                                         0.699653      -0.572361
                                                         0.314575      -0.104510
                                                         0.129869      -0.012687
                                                         0.046851       0.000382
                          1       8    5fz3              7.568386       0.371480
                                                         2.940870      -0.155968
                                                         1.478550      -0.211323
                                                         0.699653      -0.255968
                                                         0.314575      -0.046738
                                                         0.129869      -0.005674
                                                         0.046851       0.000171

     GTH Potential information for                                   GTH-PBE-q12

       Description:                       Goedecker-Teter-Hutter pseudopotential
                                           Goedecker et al., PRB 54, 1703 (1996)
                                          Hartwigsen et al., PRB 58, 3641 (1998)
                                                      Krack, TCA 114, 145 (2005)

       Gaussian exponent of the core charge distribution:               2.263468
       Electronic configuration (s p d ...):                           4   6   2

       Parameters of the local part of the GTH pseudopotential:

                          rloc        C1          C2          C3          C4
                        0.470000    7.796057   -1.893210

       Parameters of the non-local part of the GTH pseudopotential:

                   l      r(l)      h(i,j,l)

                   0    0.259829   23.380874   -8.571939
                                   -8.571939   11.066326
                   1    0.288969    8.592766   -5.377358
                                   -5.377358    6.362576
                   2    0.581245    0.027811    0.276862
                                    0.276862   -0.313932


 MOLECULE KIND INFORMATION


 All atoms are their own molecule, skipping detailed information


 TOTAL NUMBERS AND MAXIMUM NUMBERS

  Total number of            - Atomic kinds:                                   5
                             - Atoms:                                        581
                             - Shell sets:                                   581
                             - Shells:                                      2591
                             - Primitive Cartesian functions:               2945
                             - Cartesian basis functions:                   6798
                             - Spherical basis functions:                   6319

  Maximum angular momentum of- Orbital basis functions:                        3
                             - Local part of the GTH pseudopotential:          2
                             - Non-local part of the GTH pseudopotential:      4


 MODULE QUICKSTEP:  ATOMIC COORDINATES IN angstrom

  Atom  Kind  Element       X           Y           Z          Z(eff)       Mass

       1     1 C    6   11.858819   14.053523   13.736413      4.00      12.0107
       2     1 C    6   12.456344   12.890631   13.018150      4.00      12.0107
       3     1 C    6   11.704726   12.171796   12.076353      4.00      12.0107
       4     1 C    6   12.281132   11.109616   11.384011      4.00      12.0107
       5     1 C    6   13.621678   10.739764   11.611852      4.00      12.0107
       6     1 C    6   14.354770   11.443232   12.585450      4.00      12.0107
       7     1 C    6   13.781854   12.508195   13.276953      4.00      12.0107
       8     1 C    6   14.261192    9.649089   10.838482      4.00      12.0107
       9     1 C    6   14.256492    9.657040    9.416789      4.00      12.0107
      10     1 C    6   13.743457   10.759217    8.662871      4.00      12.0107
      11     1 C    6   49.126880   21.233243   13.874530      4.00      12.0107
      12     1 C    6   48.550172   22.401195   13.147481      4.00      12.0107
      13     1 C    6   49.300170   23.068446   12.166404      4.00      12.0107
      14     1 C    6   48.733228   24.107595   11.433231      4.00      12.0107
      15     1 C    6   47.402717   24.509317   11.661938      4.00      12.0107
      16     1 C    6   46.671815   23.860523   12.675546      4.00      12.0107
      17     1 C    6   47.234268   22.815607   13.404873      4.00      12.0107
      18     1 C    6   46.772453   25.586997   10.864675      4.00      12.0107
      19     1 C    6   46.761463   25.557375    9.442916      4.00      12.0107
      20     1 C    6   47.261382   24.442282    8.699410      4.00      12.0107
      21     1 C    6   14.860373    8.570681    8.703515      4.00      12.0107
      22     1 C    6   14.891932    8.597107   11.515115      4.00      12.0107
      23     1 C    6   49.113308   21.203537    2.150459      4.00      12.0107
      24     1 C    6   48.528029   22.364942    2.877564      4.00      12.0107
      25     1 C    6   49.267168   23.025429    3.870700      4.00      12.0107
      26     1 C    6   48.690853   24.059983    4.602167      4.00      12.0107
      27     1 C    6   47.360552   24.457024    4.363716      4.00      12.0107
      28     1 C    6   46.640273   23.812384    3.339918      4.00      12.0107
      29     1 C    6   47.213802   22.776480    2.608125      4.00      12.0107
      30     1 C    6   46.722074   25.531948    5.154761      4.00      12.0107
      31     1 C    6   46.733760   25.528233    6.576466      4.00      12.0107
      32     1 C    6   47.249127   24.428991    7.332858      4.00      12.0107
      33     1 C    6   40.634639   17.134857    7.331572      4.00      12.0107
      34     1 C    6   40.653913   17.172684    4.522515      4.00      12.0107
      35     1 C    6   11.883016   14.086548    2.290623      4.00      12.0107
      36     1 C    6   12.472311   12.910739    2.994784      4.00      12.0107
      37     1 C    6   11.714915   12.177730    3.921150      4.00      12.0107
      38     1 C    6   12.281527   11.095294    4.589555      4.00      12.0107
      39     1 C    6   13.620267   10.721390    4.357508      4.00      12.0107
      40     1 C    6   14.358095   11.436741    3.396432      4.00      12.0107
      41     1 C    6   13.792653   12.517902    2.723747      4.00      12.0107
      42     1 C    6   14.253880    9.624659    5.127909      4.00      12.0107
      43     1 C    6   14.252639    9.644678    6.549744      4.00      12.0107
      44     1 C    6   13.742891   10.753680    7.296827      4.00      12.0107
      45     1 C    6   22.511947    3.244036   13.748321      4.00      12.0107
      46     1 C    6   23.227083    4.348851   13.049234      4.00      12.0107
      47     1 C    6   24.223585    4.068043   12.102806      4.00      12.0107
      48     1 C    6   24.850816    5.107203   11.420524      4.00      12.0107
      49     1 C    6   24.497137    6.448988   11.664896      4.00      12.0107
      50     1 C    6   23.529197    6.721360   12.648684      4.00      12.0107
      51     1 C    6   22.897186    5.684034   13.329215      4.00      12.0107
      52     1 C    6   25.102022    7.555347   10.888823      4.00      12.0107
      53     1 C    6   25.070319    7.549673    9.467538      4.00      12.0107
      54     1 C    6   24.366730    6.550854    8.722105      4.00      12.0107
      55     1 C    6   38.303178   31.929420   13.843910      4.00      12.0107
      56     1 C    6   37.575211   30.838995   13.134446      4.00      12.0107
      57     1 C    6   36.618312   31.140769   12.153511      4.00      12.0107
      58     1 C    6   36.003777   30.118795   11.435321      4.00      12.0107
      59     1 C    6   36.331123   28.770197   11.677027      4.00      12.0107
      60     1 C    6   37.257972   28.475975   12.694678      4.00      12.0107
      61     1 C    6   37.876968   29.496605   13.411316      4.00      12.0107
      62     1 C    6   35.731508   27.677081   10.879882      4.00      12.0107
      63     1 C    6   35.765194   27.691218    9.458699      4.00      12.0107
      64     1 C    6   36.472865   28.692649    8.721854      4.00      12.0107
      65     1 C    6   25.690934    8.620739    8.747466      4.00      12.0107
      66     1 C    6   25.701891    8.628779   11.559233      4.00      12.0107
      67     1 C    6   38.329167   31.962230    2.161352      4.00      12.0107
      68     1 C    6   37.608963   30.888476    2.903376      4.00      12.0107
      69     1 C    6   36.683446   31.195884    3.912308      4.00      12.0107
      70     1 C    6   36.075699   30.176273    4.642209      4.00      12.0107
      71     1 C    6   36.379058   28.824053    4.386273      4.00      12.0107
      72     1 C    6   37.281882   28.526735    3.347093      4.00      12.0107
      73     1 C    6   37.891984   29.542764    2.618699      4.00      12.0107
      74     1 C    6   35.773213   27.723872    5.170235      4.00      12.0107
      75     1 C    6   35.786299   27.715313    6.592131      4.00      12.0107
      76     1 C    6   36.482641   28.704469    7.355342      4.00      12.0107
      77     1 C    6   46.135689   26.620830    7.286608      4.00      12.0107
      78     1 C    6   46.088126   26.580327    4.478728      4.00      12.0107
      79     1 C    6   22.459800    3.255858    2.262880      4.00      12.0107
      80     1 C    6   23.151267    4.365364    2.986450      4.00      12.0107
      81     1 C    6   24.153356    4.081063    3.927715      4.00      12.0107
      82     1 C    6   24.778648    5.112456    4.624095      4.00      12.0107
      83     1 C    6   24.421944    6.457593    4.401683      4.00      12.0107
      84     1 C    6   23.442903    6.735162    3.428948      4.00      12.0107
      85     1 C    6   22.812914    5.704038    2.733100      4.00      12.0107
      86     1 C    6   25.050763    7.556545    5.175987      4.00      12.0107
      87     1 C    6   25.044476    7.549757    6.598747      4.00      12.0107
      88     1 C    6   24.352524    6.551924    7.355492      4.00      12.0107
      89     1 C    6   26.620024   17.859988   13.779695      4.00      12.0107
      90     1 C    6   25.311636   17.903523   13.052698      4.00      12.0107
      91     1 C    6   25.050439   18.906905   12.106155      4.00      12.0107
      92     1 C    6   23.837831   18.929739   11.419060      4.00      12.0107
      93     1 C    6   22.849861   17.952148   11.657219      4.00      12.0107
      94     1 C    6   23.108088   16.970704   12.632243      4.00      12.0107
      95     1 C    6   24.322839   16.943042   13.316843      4.00      12.0107
      96     1 C    6   21.576085   17.940884   10.893494      4.00      12.0107
      97     1 C    6   21.575735   17.920624    9.471205      4.00      12.0107
      98     1 C    6   22.781467   17.797681    8.710774      4.00      12.0107
      99     1 C    6   34.441020   17.192999   13.920184      4.00      12.0107
     100     1 C    6   35.733800   17.144758   13.174414      4.00      12.0107
     101     1 C    6   35.935295   16.179870   12.175562      4.00      12.0107
     102     1 C    6   37.114621   16.167008   11.436818      4.00      12.0107
     103     1 C    6   38.124928   17.117165   11.679915      4.00      12.0107
     104     1 C    6   37.926534   18.062895   12.703580      4.00      12.0107
     105     1 C    6   36.743213   18.082035   13.437981      4.00      12.0107
     106     1 C    6   39.378539   17.126155   10.894031      4.00      12.0107
     107     1 C    6   39.374299   17.141363    9.472648      4.00      12.0107
     108     1 C    6   38.166227   17.255170    8.714995      4.00      12.0107
     109     1 C    6   20.329388   17.938439    8.762459      4.00      12.0107
     110     1 C    6   20.351371   17.943271   11.575781      4.00      12.0107
     111     1 C    6   34.477152   17.246716    2.185298      4.00      12.0107
     112     1 C    6   35.778039   17.176839    2.915253      4.00      12.0107
     113     1 C    6   36.001582   16.177428    3.875150      4.00      12.0107
     114     1 C    6   37.185936   16.159349    4.606839      4.00      12.0107
     115     1 C    6   38.176008   17.139385    4.394604      4.00      12.0107
     116     1 C    6   37.958588   18.113219    3.403702      4.00      12.0107
     117     1 C    6   36.771280   18.136542    2.676186      4.00      12.0107
     118     1 C    6   39.423757   17.155091    5.187875      4.00      12.0107
[...]
 flops   256 x   286 x   288         518889406464       0.0%    100.0%      0.0%
 flops   256 x   288 x   286         518889406464       0.0%    100.0%      0.0%
 flops   286 x   256 x   288         518889406464       0.0%    100.0%      0.0%
 flops   286 x   288 x   256         518889406464       0.0%    100.0%      0.0%
 flops   288 x   256 x   286         518889406464       0.0%    100.0%      0.0%
 flops   288 x   286 x   256         518889406464       0.0%    100.0%      0.0%
 flops   256 x   278 x   288         521919922176       0.0%    100.0%      0.0%
 flops   256 x   288 x   278         521919922176       0.0%    100.0%      0.0%
 flops   278 x   256 x   288         521919922176       0.0%    100.0%      0.0%
 flops   278 x   288 x   256         521919922176       0.0%    100.0%      0.0%
 flops   288 x   256 x   278         521919922176       0.0%    100.0%      0.0%
 flops   288 x   278 x   256         521919922176       0.0%    100.0%      0.0%
 flops    26 x     5 x   256         589868830720       0.0%    100.0%      0.0%
 flops     5 x    26 x   256         592848855040       0.0%    100.0%      0.0%
 flops   288 x   288 x   288         598056763392       0.0%    100.0%      0.0%
 flops    26 x    13 x   278         761788887288       0.0%    100.0%      0.0%
 flops    13 x    26 x   278         767271874616       0.0%    100.0%      0.0%
 flops     5 x     5 x   256         769775462400       0.0%    100.0%      0.0%
 flops    26 x    13 x   286         783710869656       0.0%    100.0%      0.0%
 flops    13 x    26 x   286         789351640792       0.0%    100.0%      0.0%
 flops     5 x    13 x   278         892785140520       0.0%    100.0%      0.0%
 flops    13 x     5 x   278         894084445800       0.0%    100.0%      0.0%
 flops     5 x    13 x   286         918476799240       0.0%    100.0%      0.0%
 flops    13 x     5 x   286         919813494600       0.0%    100.0%      0.0%
 flops   256 x   256 x   286         922470055936       0.0%    100.0%      0.0%
 flops   256 x   286 x   256         922470055936       0.0%    100.0%      0.0%
 flops   286 x   256 x   256         922470055936       0.0%    100.0%      0.0%
 flops   256 x   256 x   278         927857639424       0.0%    100.0%      0.0%
 flops   256 x   278 x   256         927857639424       0.0%    100.0%      0.0%
 flops   278 x   256 x   256         927857639424       0.0%    100.0%      0.0%
 flops   288 x   288 x   256        1063212023808       0.0%    100.0%      0.0%
 flops   256 x   288 x   288        1063212023808       0.0%    100.0%      0.0%
 flops   288 x   256 x   288        1063212023808       0.0%    100.0%      0.0%
 flops   278 x   278 x  1582        1251976069120       0.0%    100.0%      0.0%
 flops   278 x   288 x  1582        1297011179520       0.0%    100.0%      0.0%
 flops   288 x   278 x  1582        1297011179520       0.0%    100.0%      0.0%
 flops   286 x   286 x  1582        1325069025280       0.0%    100.0%      0.0%
 flops   286 x   288 x  1582        1334335242240       0.0%    100.0%      0.0%
 flops   288 x   286 x  1582        1334335242240       0.0%    100.0%      0.0%
 flops    13 x    22 x    13        1356852891108       0.0%    100.0%      0.0%
 flops    26 x    13 x   288        1578382730496       0.0%    100.0%      0.0%
 flops    13 x    26 x   288        1589743164672       0.0%    100.0%      0.0%
 flops  1582 x   278 x   278        1655444919520       0.0%    100.0%      0.0%
 flops  1582 x   288 x   278        1714993297920       0.0%    100.0%      0.0%
 flops  1582 x   278 x   288        1714993297920       0.0%    100.0%      0.0%
 flops  1582 x   286 x   286        1752093222880       0.0%    100.0%      0.0%
 flops  1582 x   288 x   286        1764345623040       0.0%    100.0%      0.0%
 flops  1582 x   286 x   288        1764345623040       0.0%    100.0%      0.0%
 flops    13 x    30 x    13        1780107156360       0.0%    100.0%      0.0%
 flops     5 x    13 x   288        1849799427840       0.0%    100.0%      0.0%
 flops    13 x     5 x   288        1852491513600       0.0%    100.0%      0.0%
 flops   256 x   256 x   288        1890154708992       0.0%    100.0%      0.0%
 flops   256 x   288 x   256        1890154708992       0.0%    100.0%      0.0%
 flops   288 x   256 x   256        1890154708992       0.0%    100.0%      0.0%
 flops   256 x   278 x  1582        2305797652480       0.0%    100.0%      0.0%
 flops   278 x   256 x  1582        2305797652480       0.0%    100.0%      0.0%
 flops   256 x   286 x  1582        2372151541760       0.0%    100.0%      0.0%
 flops   286 x   256 x  1582        2372151541760       0.0%    100.0%      0.0%
 flops   288 x   288 x  1582        2687332515840       0.0%    100.0%      0.0%
 flops    26 x    13 x   256        2806013743104       0.0%    100.0%      0.0%
 flops    13 x    26 x   256        2826210070528       0.0%    100.0%      0.0%
 flops  1582 x   256 x   278        3048876974080       0.0%    100.0%      0.0%
 flops  1582 x   278 x   256        3048876974080       0.0%    100.0%      0.0%
 flops  1582 x   256 x   286        3136614440960       0.0%    100.0%      0.0%
 flops  1582 x   286 x   256        3136614440960       0.0%    100.0%      0.0%
 flops     5 x    13 x   256        3288532316160       0.0%    100.0%      0.0%
 flops    13 x     5 x   256        3293318246400       0.0%    100.0%      0.0%
 flops   256 x   256 x   256        3360275038208       0.0%    100.0%      0.0%
 flops    26 x    32 x    26        3381921354240       0.0%    100.0%      0.0%
 flops  1582 x   278 x  1582        3403644574624       0.0%    100.0%      0.0%
 flops  1582 x   286 x  1582        3501591181088       0.0%    100.0%      0.0%
 flops  1582 x   288 x   288        3553367408640       0.0%    100.0%      0.0%
 flops    13 x    13 x   278        3708831056424       0.0%    100.0%      0.0%
 flops   278 x   278 x  1579        3748805713920       0.0%    100.0%      0.0%
 flops    13 x    13 x   286        3815560007688       0.0%    100.0%      0.0%
 flops   278 x   288 x  1579        3883654840320       0.0%    100.0%      0.0%
 flops   288 x   278 x  1579        3883654840320       0.0%    100.0%      0.0%
 flops   286 x   286 x  1579        3967668756480       0.0%    100.0%      0.0%
 flops   286 x   288 x  1579        3995414691840       0.0%    100.0%      0.0%
 flops   288 x   286 x  1579        3995414691840       0.0%    100.0%      0.0%
 flops   256 x   288 x  1582        4777480028160       0.0%    100.0%      0.0%
 flops   288 x   256 x  1582        4777480028160       0.0%    100.0%      0.0%
 flops  1579 x   278 x   278        4956916930320       0.0%    100.0%      0.0%
 flops  1579 x   278 x   288        5135223294720       0.0%    100.0%      0.0%
 flops  1579 x   288 x   278        5135223294720       0.0%    100.0%      0.0%
 flops  1579 x   286 x   286        5246312008080       0.0%    100.0%      0.0%
 flops  1579 x   286 x   288        5282999504640       0.0%    100.0%      0.0%
 flops  1579 x   288 x   286        5282999504640       0.0%    100.0%      0.0%
 flops    26 x    32 x     5        5590323573120       0.0%    100.0%      0.0%
 flops     5 x    32 x    26        5590323573120       0.0%    100.0%      0.0%
 flops  1582 x   288 x   256        6317097615360       0.0%    100.0%      0.0%
 flops  1582 x   256 x   288        6317097615360       0.0%    100.0%      0.0%
 flops   256 x   278 x  1579        6904275271680       0.0%    100.0%      0.0%
 flops   278 x   256 x  1579        6904275271680       0.0%    100.0%      0.0%
 flops  1582 x   288 x  1582        7052155665408       0.0%    100.0%      0.0%
 flops   256 x   286 x  1579        7102959452160       0.0%    100.0%      0.0%
 flops   286 x   256 x  1579        7102959452160       0.0%    100.0%      0.0%
 flops     5 x    32 x     5        7173640742400       0.0%    100.0%      0.0%
 flops    13 x    13 x   288        7684484491008       0.0%    100.0%      0.0%
 flops   288 x   288 x  1579        8046709309440       0.0%    100.0%      0.0%
 flops   256 x   256 x  1582        8493297827840       0.0%    100.0%      0.0%
 flops  1579 x   256 x   278        9129285857280       0.0%    100.0%      0.0%
 flops  1579 x   278 x   256        9129285857280       0.0%    100.0%      0.0%
 flops  1579 x   256 x   286        9391999119360       0.0%    100.0%      0.0%
 flops  1579 x   286 x   256        9391999119360       0.0%    100.0%      0.0%
 flops  1579 x   278 x  1582       10191570385584       0.0%    100.0%      0.0%
 flops  1582 x   278 x  1579       10191570385584       0.0%    100.0%      0.0%
 flops  1579 x   286 x  1582       10484852986608       0.0%    100.0%      0.0%
 flops  1582 x   286 x  1579       10484852986608       0.0%    100.0%      0.0%
 flops  1579 x   288 x   288       10639887114240       0.0%    100.0%      0.0%
 flops  1582 x   256 x   256       11230395760640       0.0%    100.0%      0.0%
 flops  1582 x   256 x  1582       12537165627392       0.0%    100.0%      0.0%
 flops    13 x    13 x   256       13661305761792       0.0%    100.0%      0.0%
 flops   256 x   288 x  1579       14305260994560       0.0%    100.0%      0.0%
 flops   288 x   256 x  1579       14305260994560       0.0%    100.0%      0.0%
 flops  1579 x   256 x   288       18915354869760       0.0%    100.0%      0.0%
 flops  1579 x   288 x   256       18915354869760       0.0%    100.0%      0.0%
 flops  1582 x   288 x  1579       21116347273728       0.0%    100.0%      0.0%
 flops  1579 x   288 x  1582       21116347273728       0.0%    100.0%      0.0%
 flops   256 x   256 x  1579       25431575101440       0.0%    100.0%      0.0%
 flops    26 x    32 x    13       26621707597056       0.0%    100.0%      0.0%
 flops    13 x    32 x    26       26621707597056       0.0%    100.0%      0.0%
 flops  1579 x   278 x  1579       30516731299944       0.0%    100.0%      0.0%
 flops    13 x    32 x     5       31110283226880       0.0%    100.0%      0.0%
 flops     5 x    32 x    13       31110283226880       0.0%    100.0%      0.0%
 flops  1579 x   286 x  1579       31394910617928       0.0%    100.0%      0.0%
 flops  1579 x   256 x   256       33627297546240       0.0%    100.0%      0.0%
 flops  1579 x   256 x  1582       37540172931072       0.0%    100.0%      0.0%
 flops  1582 x   256 x  1579       37540172931072       0.0%    100.0%      0.0%
 flops  1579 x   288 x  1579       63228910894848       0.0%    100.0%      0.0%
 flops  1579 x   256 x  1579      112406952701952       0.0%    100.0%      0.0%
 flops    13 x    32 x    13      127788710677056       0.0%    100.0%      0.0%
 flops inhomo. stacks                           0       0.0%      0.0%      0.0%
 flops total                         1.137565E+15       0.0%    100.0%      0.0%
 flops max/rank                     76.166383E+12       0.0%    100.0%      0.0%
 matmuls inhomo. stacks                         0       0.0%      0.0%      0.0%
 matmuls total                        37148284214       0.0%    100.0%      0.0%
 number of processed stacks              47811126       0.0%    100.0%      0.0%
 average stack size                                     0.0     777.0       0.0
 marketing flops                     2.095537E+15
 -------------------------------------------------------------------------------
 # multiplications                          56779
 max memory usage/rank               2.260886E+09
 # max total images/rank                        1
 # max 3D layers                                1
 # MPI messages exchanged                 5450784
 MPI messages size (bytes):
  total size                        18.397595E+12
  min size                           0.000000E+00
  max size                          20.021792E+06
  average size                       3.375220E+06
 MPI breakdown and total messages size (bytes):
             size <=      128               52536                        0
       128 < size <=     8192                   0                        0
      8192 < size <=    32768                   0                        0
     32768 < size <=   131072                4776                329391168
    131072 < size <=  4194304             4664304           10698976292976
   4194304 < size <= 16777216              494352            3011237517816
  16777216 < size                          234816            4688073379488
 -------------------------------------------------------------------------------
 -                                                                             -
 -                      DBCSR MESSAGE PASSING PERFORMANCE                      -
 -                                                                             -
 -------------------------------------------------------------------------------
 ROUTINE             CALLS      AVE VOLUME [Bytes]
 MP_Group             8080
 MP_Bcast              191                     12.
 MP_Allreduce       280386                     30.
 MP_Alltoall        284685                 837705.
 MP_Wait           2725392
 MP_ISend           906872                1317742.
 MP_IRecv           906872                1305323.
 MP_Memory         2070446
 -------------------------------------------------------------------------------

 MEMORY| Estimated peak process memory [MiB]                                2157

 -------------------------------------------------------------------------------
 ----                             MULTIGRID INFO                            ----
 -------------------------------------------------------------------------------
 count for grid        1:        1657680          cutoff [a.u.]          180.00
 count for grid        2:         393520          cutoff [a.u.]           60.00
 count for grid        3:         224320          cutoff [a.u.]           20.00
 count for grid        4:          22240          cutoff [a.u.]            6.67
 count for grid        5:            640          cutoff [a.u.]            2.22
 total gridlevel count  :        2298400

 -------------------------------------------------------------------------------
 -                                                                             -
 -                         MESSAGE PASSING PERFORMANCE                         -
 -                                                                             -
 -------------------------------------------------------------------------------

 ROUTINE             CALLS      AVE VOLUME [Bytes]
 MP_Group                6
 MP_Bcast             1235                6812739.
 MP_Allreduce           91                  18149.
 MP_Sync                 5
 -------------------------------------------------------------------------------


 -------------------------------------------------------------------------------
 -                                                                             -
 -                           R E F E R E N C E S                               -
 -                                                                             -
 -------------------------------------------------------------------------------
 
 CP2K version 7.1, the CP2K developers group (2019).
 CP2K is freely available from https://www.cp2k.org/ .

 Schuett, Ole; Messmer, Peter; Hutter, Juerg; VandeVondele, Joost. 
 Electronic Structure Calculations on Graphics Processing Units, John
 Wiley & Sons, Ltd, 173-190 (2016). 
 GPU-Accelerated Sparse Matrix-Matrix Multiplication for
 Linear Scaling Density Functional Theory.
 https://dx.doi.org/10.1002/9781118670712.ch8

 Borstnik, U; VandeVondele, J; Weber, V; Hutter, J. 
 PARALLEL COMPUTING, 40 (5-6), 47-58 (2014). 
 Sparse matrix multiplication: The distributed block-compressed sparse
 row library.
 https://dx.doi.org/10.1016/j.parco.2014.03.012

 Hutter, J; Iannuzzi, M; Schiffmann, F; VandeVondele, J. 
 WIREs Comput Mol Sci., 4 (1), 15-25 (2014). 
 CP2K: atomistic simulations of condensed matter systems.
 https://dx.doi.org/10.1002/wcms.1159

 Grimme, S; Ehrlich, S; Goerigk, L. 
 JOURNAL OF COMPUTATIONAL CHEMISTRY, 32, 1456 (2011). 
 Effect of the damping function in dispersion corrected density functional theory.
 https://dx.doi.org/10.1002/jcc.21759

 Grimme, S; Antony, J; Ehrlich, S; Krieg, H. 
 JOURNAL OF CHEMICAL PHYSICS, 132 (15), 154104 (2010). 
 A consistent and accurate ab initio parametrization of density
 functional dispersion correction (DFT-D) for the 94 elements H-Pu.
 https://dx.doi.org/10.1063/1.3382344

 VandeVondele, J; Hutter, J. 
 JOURNAL OF CHEMICAL PHYSICS, 127 (11), 114105 (2007). 
 Gaussian basis sets for accurate calculations on molecular systems in
 gas and condensed phases.
 https://dx.doi.org/10.1063/1.2770708

 Krack, M. 
 THEORETICAL CHEMISTRY ACCOUNTS, 114 (1-3), 145-152 (2005). 
 Pseudopotentials for H to Kr optimized for gradient-corrected
 exchange-correlation functionals.
 https://dx.doi.org/10.1007/s00214-005-0655-y

 VandeVondele, J; Krack, M; Mohamed, F; Parrinello, M; Chassaing, T;
 Hutter, J. COMPUTER PHYSICS COMMUNICATIONS, 167 (2), 103-128 (2005). 
 QUICKSTEP: Fast and accurate density functional calculations using a
 mixed Gaussian and plane waves approach.
 https://dx.doi.org/10.1016/j.cpc.2004.12.014

 Frigo, M; Johnson, SG. 
 PROCEEDINGS OF THE IEEE, 93 (2), 216-231 (2005). 
 The design and implementation of FFTW3.
 https://dx.doi.org/10.1109/JPROC.2004.840301

 Kolafa, J. 
 JOURNAL OF COMPUTATIONAL CHEMISTRY, 25 (3), 335-342 (2004). 
 Time-reversible always stable predictor-corrector method for molecular dynamics of polarizable molecules.
 https://dx.doi.org/10.1002/jcc.10385

 VandeVondele, J; Hutter, J. 
 JOURNAL OF CHEMICAL PHYSICS, 118 (10), 4365-4369 (2003). 
 An efficient orbital transformation method for electronic structure
 calculations.
 https://dx.doi.org/10.1063/1.1543154

 Hartwigsen, C; Goedecker, S; Hutter, J. 
 PHYSICAL REVIEW B, 58 (7), 3641-3662 (1998). 
 Relativistic separable dual-space Gaussian pseudopotentials from H to Rn.
 https://dx.doi.org/10.1103/PhysRevB.58.3641

 Lippert, G; Hutter, J; Parrinello, M. 
 MOLECULAR PHYSICS, 92 (3), 477-487 (1997). 
 A hybrid Gaussian and plane wave density functional scheme.
 https://dx.doi.org/10.1080/002689797170220

 Perdew, JP; Burke, K; Ernzerhof, M. 
 PHYSICAL REVIEW LETTERS, 77 (18), 3865-3868 (1996). 
 Generalized gradient approximation made simple.
 https://dx.doi.org/10.1103/PhysRevLett.77.3865

 Goedecker, S; Teter, M; Hutter, J. 
 PHYSICAL REVIEW B, 54 (3), 1703-1710 (1996). 
 Separable dual-space Gaussian pseudopotentials.
 https://dx.doi.org/10.1103/PhysRevB.54.1703


 -------------------------------------------------------------------------------
 -                                                                             -
 -                                T I M I N G                                  -
 -                                                                             -
 -------------------------------------------------------------------------------
 SUBROUTINE                       CALLS  ASD         SELF TIME        TOTAL TIME
                                MAXIMUM       AVERAGE  MAXIMUM  AVERAGE  MAXIMUM
 CP2K                                 1  1.0     0.01     0.01 85742.60 85742.83
 vb_anal                              1  2.0 85738.10 85738.32 85740.40 85740.63
 -------------------------------------------------------------------------------

 The number of warnings for this run is : 0
 
 -------------------------------------------------------------------------------
  **** **** ******  **  PROGRAM ENDED AT                 2021-11-28 08:01:35.488
 ***** ** ***  *** **   PROGRAM RAN ON             node1937.palmetto.clemson.edu
 **    ****   ******    PROGRAM RAN BY                                   svicchi
 ***** **    ** ** **   PROGRAM PROCESS ID                               2279108
  **** **  *******  **  PROGRAM STOPPED IN  /scratch2/svicchi/CP2K-4064463.pbs02
