     584
 i =      234, E =     -4846.6895046997
  C        11.8587908325       14.0534814150       13.7364574631
  C        12.4562555944       12.8905503538       13.0181953668
  C        11.7045169805       12.1715756956       12.0766109308
  C        12.2808828594       11.1093687742       11.3842673534
  C        13.6214887416       10.7396261769       11.6119144521
  C        14.3546727046       11.4432328930       12.5853504048
  C        13.7818111261       12.5082239332       13.2768522262
  C        14.2610279703        9.6489563461       10.8385360930
  C        14.2563456198        9.6569310219        9.4168430715
  C        13.7431810527       10.7590493974        8.6629398215
  C        49.1269250144       21.2332099204       13.8745128564
  C        48.5502304126       22.4011639052       13.1474447201
  C        49.3002444061       23.0684999103       12.1664393191
  C        48.7332778097       24.1076365662       11.4332564586
  C        47.4027581730       24.5093183455       11.6619369062
  C        46.6718565566       23.8604584650       12.6754934053
  C        47.2343201855       22.8155655159       13.4048363287
  C        46.7724639473       25.5869584348       10.8646457168
  C        46.7614347765       25.5573251127        9.4428884460
  C        47.2614493857       24.4422692220        8.6993902237
  C        14.8603332235        8.5706311983        8.7035719967
  C        14.8917798647        8.5969988973       11.5151881139
  C        49.1133501959       21.2035112228        2.1504667836
  C        48.5280300130       22.3649021556        2.8775883302
  C        49.2672044245       23.0255316329        3.8706016135
  C        48.6908744308       24.0601037080        4.6020379200
  C        47.3604907591       24.4569413826        4.3637334475
  C        46.6401735247       23.8121909688        3.3400400424
  C        47.2137207680       22.7762744505        2.6082800380
  C        46.7220135206       25.5318865219        5.1547532122
  C        46.7337044145       25.5281963588        6.5764555942
  C        47.2491390009       24.4289785092        7.3328376200
  C        40.6359289292       17.1586386525        7.3276587027
  C        40.6551451752       17.1823778922        4.5186542870
  C        11.8830505789       14.0865068495        2.2905945149
  C        12.4723828247       12.9107742165        2.9948642792
  C        11.7148477774       12.1775008153        3.9208979387
  C        12.2814486239       11.0950716929        4.5893322184
  C        13.6203101841       10.7214444018        4.3575735957
  C        14.3583214493       11.4370748152        3.3968388437
  C        13.7928633949       12.5182219444        2.7241376937
  C        14.2539288942        9.6246928990        5.1279760546
  C        14.2526293804        9.6446362694        6.5498125318
  C        13.7426712544       10.7535360425        7.2968991659
  C        22.5128257299        3.2442063395       13.7482126685
  C        23.2301318336        4.3483204730       13.0491966675
  C        24.2266542443        4.0655594256       12.1032633906
  C        24.8568066294        5.1031814835       11.4211860231
  C        24.5062916178        6.4459447243       11.6649631285
  C        23.5380753133        6.7202751120       12.6480471210
  C        22.9032170762        5.6843776206       13.3285237778
  C        25.1144919387        7.5507253595       10.8885170568
  C        25.0836786636        7.5444926100        9.4670036045
  C        24.3779980828        6.5470285232        8.7216635856
  C        38.3038459788       31.9290567457       13.8432738081
  C        37.5779850497       30.8378345558       13.1325665098
  C        36.6219355401       31.1381099903       12.1503585904
  C        36.0098064725       30.1151407185       11.4313311045
  C        36.3388006431       28.7669980884       11.6734662028
  C        37.2649720977       28.4743001857       12.6921823568
  C        37.8815188062       29.4958572431       13.4095934479
  C        35.7414391018       27.6723623925       10.8764630588
  C        35.7762196665       27.6849562019        9.4552465110
  C        36.4816089186       28.6875291083        8.7177639328
  C        25.7068839639        8.6137288747        8.7462101810
  C        25.7157818890        8.6238938625       11.5583655321
  C        38.3289881016       31.9619478256        2.1609526028
  C        37.6089700685       30.8870436080        2.9016897154
  C        36.6829603262       31.1922123702        3.9108121301
  C        36.0767914594       30.1709802632        4.6398916893
  C        36.3823347089       28.8194565659        4.3828355178
  C        37.2850713335       28.5243399962        3.3430170862
  C        37.8934635350       29.5419465929        2.6154403733
  C        35.7800058173       27.7173807831        5.1669722516
  C        35.7959483669       27.7079108076        6.5887912458
  C        36.4906413192       28.6987855865        7.3512498093
  C        46.1355950489       26.6207637896        7.2866099302
  C        46.0880490993       26.5802515098        4.4787122782
  C        22.4606615332        3.2557569077        2.2628315742
  C        23.1544602510        4.3643354289        2.9861324989
  C        24.1577443714        4.0779599521        3.9255601094
  C        24.7858476448        5.1078196750        4.6217748999
  C        24.4308411508        6.4536489041        4.4009899080
  C        23.4504707552        6.7333612538        3.4301800562
  C        22.8177251256        5.7037114891        2.7344652516
  C        25.0626283918        7.5512808747        5.1750455846
  C        25.0575469754        7.5442686759        6.5978600624
  C        24.3640738203        6.5478212137        7.3550003588
  C        26.6238193081       17.8591404256       13.7781006823
  C        25.3152745117       17.9051066406       13.0531655740
  C        25.0560410223       18.9015612264       12.0986199019
  C        23.8433213540       18.9217364724       11.4116078245
  C        22.8525357968       17.9488531440       11.6578356590
  C        23.1082894728       16.9754883032       12.6418768612
  C        24.3231581462       16.9499107297       13.3259103092
  C        21.5787980075       17.9336231538       10.8938502610
  C        21.5784266644       17.9083273302        9.4714566233
  C        22.7836696872       17.7819597174        8.7108865790
  C        34.4235435595       17.2258942730       13.8800930295
  C        35.7201679272       17.1705870418       13.1450999934
  C        35.9225661905       16.2130766987       12.1392130453
  C        37.1094099425       16.1986780624       11.4126485281
  C        38.1231712163       17.1413789786       11.6711917433
  C        37.9236231824       18.0778913011       12.7031188894
  C        36.7351378998       18.0966900072       13.4286000842
  C        39.3793508666       17.1520538069       10.8896631218
  C        39.3767058546       17.1768689896        9.4684587606
  C        38.1709103072       17.3113970047        8.7102554121
  C        20.3319224879       17.9248782840        8.7627894319
  C        20.3538481531       17.9379374707       11.5761348176
  C        34.4763522316       17.2494990377        2.1849959810
  C        35.7784400170       17.1798462442        2.9114516291
  C        35.9970124069       16.1951752786        3.8869289477
  C        37.1820366835       16.1834074849        4.6175617614
  C        38.1769845906       17.1540428178        4.3891709318
  C        37.9645739512       18.1135069699        3.3824439342
  C        36.7767812452       18.1313677563        2.6562436632
  C        39.4244377016       17.1747549096        5.1832417225
  C        39.4000088426       17.1879802720        6.6035395956
  C        38.1822966815       17.3137703612        7.3438088877
  C        35.1691923204       26.6268074373        7.2930186857
  C        35.1883447227       26.6475686983        4.4840666468
  C        26.5728712484       17.8207543485        2.3340848259
  C        25.2583995547       17.8704669017        3.0397340460
  C        24.9963196559       18.8720453754        3.9865155641
  C        23.7776766703       18.8982523040        4.6587588579
  C        22.7924889820       17.9221678978        4.4083881374
  C        23.0488873255       16.9457644878        3.4287563339
  C        24.2679219658       16.9178748738        2.7545239361
  C        21.5290055149       17.9020775042        5.1813383357
  C        21.5531309196       17.8901532284        6.6028291637
  C        22.7716878549       17.7728026840        7.3446607462
  C        14.0468329859       17.8285041295        2.2942502355
  C        15.3511404828       17.8845878248        3.0200011888
  C        15.6074755783       18.8857067760        3.9699350843
  C        16.8163676111       18.9052506052        4.6631130277
  C        17.8034098789       17.9266136449        4.4284538154
  C        17.5518642322       16.9498442811        3.4464067482
  C        16.3423505081       16.9255618519        2.7550021392
  C        19.0727074379       17.9085533466        5.1972853782
  C        19.0717074082       17.9032061088        6.6198020381
  C        17.8649600203       17.8025198590        7.3812511550
  C        46.8068859156       17.2203442324        2.1647454581
  C        45.5190254016       17.1647060893        2.9131297212
  C        45.3120936520       16.1919382796        3.9031033520
  C        44.1319813418       16.1821053118        4.6416613220
  C        43.1305557626       17.1452302654        4.4110049635
  C        43.3348912182       18.0976837907        3.3947023492
  C        44.5155591236       18.1115372132        2.6574467130
  C        41.8781948543       17.1644097502        5.1990255751
  C        41.8832635278       17.1661230995        6.6205957018
  C        43.0918113650       17.2559994205        7.3806404646
  C        20.3185945946       17.9145842356        7.3279382814
  C        20.2968112165       17.8914354865        4.5148755235
  C        46.7858471802       17.2310432792       13.8854347711
  C        45.4817279765       17.1267875948       13.1724112656
  C        45.2617794698       16.1323142800       12.2076252396
  C        44.0735594885       16.1108476000       11.4817315910
  C        43.0769922278       17.0805215491       11.7048456746
  C        43.2863213680       18.0431612425       12.7096937067
  C        44.4757613232       18.0713701480       13.4301242669
  C        41.8325049396       17.1119689995       10.9065486842
  C        41.8600149360       17.1377381013        9.4860806136
  C        43.0807179925       17.2399541391        8.7470820664
  C        46.1533754569       26.6371911262        8.7211561247
  C        46.1624742832       26.6560451631       11.5307936643
  C        14.0459291654       17.8316474883       13.7035535499
  C        15.3672665444       17.9057187424       13.0132381885
  C        15.6405032307       18.9193424560       12.0825973176
  C        16.8697338646       18.9559758579       11.4279957731
  C        17.8537359459       17.9782878422       11.6782565081
  C        17.5874039438       16.9939195853       12.6473255665
  C        16.3601352936       16.9566010672       13.3052692018
  C        19.1211844795       17.9523837915       10.9092536797
  C        19.0969118545       17.9246839881        9.4877702565
  C        17.8772450555       17.8122273618        8.7472658714
  C        28.8075809109       14.0927948035        2.3974410165
  C        28.1951055450       12.9194092185        3.0856653691
  C        28.9185153090       12.1795695034        4.0327896961
  C        28.3200543014       11.1029676019        4.6825377419
  C        26.9844479453       10.7436946104        4.4103522997
  C        26.2829273832       11.4645119965        3.4272839073
  C        26.8792506282       12.5405944948        2.7750456794
  C        26.3161651181        9.6633037262        5.1712023272
  C        26.3068580435        9.6881607471        6.5922499303
  C        26.8140992775       10.7996423138        7.3376788720
  C        32.1815854723       21.2380556263        2.1455654100
  C        32.7792505251       22.4025620115        2.8647359736
  C        32.0398435842       23.0711289532        3.8521763979
  C        32.6146962502       24.1074402114        4.5811097224
  C        33.9452509874       24.5026259464        4.3436636484
  C        34.6673335511       23.8523998418        3.3251185087
  C        34.0945999114       22.8107825106        2.5978837237
  C        34.5783061541       25.5752064547        5.1438893364
  C        34.5768319148       25.5430981899        6.5654804013
  C        34.0715986968       24.4263656287        7.3038253776
  C        25.6976976627        8.6104303463        7.3116571029
  C        25.6774497470        8.6134444954        4.4984041304
  C        32.1054516412       21.2277091973       13.8783244913
  C        32.7010998627       22.3746850402       13.1310204343
  C        31.9744894452       23.0280822168       12.1237390102
  C        32.5605138245       24.0541938612       11.3862058256
  C        33.8866556162       24.4570976070       11.6378796515
  C        34.5963604221       23.8162811586       12.6715290933
  C        34.0153545630       22.7844130594       13.4040343705
  C        34.5307752895       25.5360209705       10.8539453379
  C        34.5516418137       25.5237721107        9.4321464289
  C        34.0586194496       24.4178596721        8.6704348277
  C        40.6236566730       17.1484122552        8.7614186841
  C        40.6014853544       17.1362096109       11.5707428559
  C        28.7433093454       14.0674345245       13.8161209528
  C        28.1374179534       12.9192300026       13.0758360704
  C        28.8814288209       12.2177719122       12.1138157482
  C        28.3033812783       11.1615698871       11.4122690516
  C        26.9675206569       10.7787180064       11.6510217946
  C        26.2420356741       11.4677679669       12.6404244203
  C        26.8173122803       12.5257512598       13.3418096069
  C        26.3275103044        9.6858793470       10.8797522839
  C        26.3147265585        9.6993246616        9.4583822220
  C        26.8159608644       10.8057683012        8.7033344042
  C        18.1354577066        3.1810032704        2.3222509499
  C        17.4061558424        4.2782695942        3.0208779361
  C        16.3903879654        3.9999253520        3.9483494282
  C        15.7426843528        5.0399326696        4.6118410366
  C        16.0946703886        6.3836418505        4.3722175312
  C        17.0840701093        6.6531379180        3.4084685396
  C        17.7331433274        5.6157875191        2.7434077134
  C        15.4703620412        7.4913506077        5.1352648404
  C        15.4855950114        7.4906273635        6.5569805740
  C        16.1871397627        6.4970025199        7.3101545480
  C        42.9459330021       31.8595368475        2.0780049870
  C        43.6463158357       30.7718864165        2.8220019695
  C        44.5919894447       31.0932143522        3.8079261772
  C        45.1976687778       30.0876704618        4.5556252656
  C        44.8711942454       28.7346156098        4.3408058842
  C        43.9452189165       28.4202777825        3.3277310476
  C        43.3364195596       29.4254136140        2.5796704156
  C        45.4887459024       27.6553030993        5.1440096187
  C        45.4928900560       27.6808945360        6.5656994481
  C        44.8057854160       28.6889301868        7.3123162147
  C        14.8566335928        8.5631217724        7.2693506422
  C        14.8751277645        8.5631516748        4.4566828263
  C        42.9464609731       31.9615219061       13.8038598317
  C        43.6916785512       30.8853776585       13.0903532203
  C        44.6564286202       31.1912827229       12.1182114010
  C        45.2779706439       30.1716868688       11.4005032422
  C        44.9540050063       28.8213912601       11.6379797779
  C        44.0203633637       28.5237241739       12.6486042504
  C        43.3920810816       29.5404934515       13.3607589613
  C        45.5630965937       27.7239978562       10.8527535106
  C        45.5333571073       27.7173110209        9.4314574107
  C        44.8270263528       28.7075354574        8.6785013430
  C        35.1578239273       26.6160232313        8.7277020912
  C        35.1369207456       26.5970609264       11.5372544947
  C        18.1485911964        3.2469797852       13.7015108129
  C        17.4299627494        4.3438257938       12.9922585417
  C        16.4147332292        4.0525387655       12.0687050626
  C        15.7664082717        5.0831703978       11.3933209668
  C        16.1211084517        6.4283924388       11.6160332750
  C        17.1124830110        6.7117934969       12.5732777141
  C        17.7601779805        5.6828931515       13.2530339303
  C        15.4906184586        7.5240859729       10.8435863790
  C        15.4965564815        7.5075208993        9.4224500122
  C        16.1932990883        6.5057851914        8.6757656347
 Zr         9.2972682008       16.0526831721       14.1774205499
 Zr        49.8367080708       16.0065653224        1.7514139535
 Zr        22.0732773994        0.0298337132       14.1838969781
 Zr        42.4609868377       35.1534883844        1.8060482754
 Zr        29.5986636856       19.0825906804       14.2439754209
 Zr        29.5782256049       19.1739110238        1.8698209251
 Zr        11.0384582562       19.0518997513        1.8328486793
 Zr        11.0443085387       19.1548017354       14.2458287813
 Zr        31.3617547582       16.1033606421        1.8814288311
 Zr        31.3808190714       16.0040522404       14.2226838401
 Zr        18.6012022158       -0.0012555559        1.7684641275
 Zr        18.5064363987       -0.0077747025       14.2086776849
 Zr        12.3024798208       16.3235668409       15.9851852382
 Zr        48.6173310267       18.8333863190        0.0153006169
 Zr        20.3152932338        2.4735571198       15.9853121200
 Zr        40.6435957472       32.6871916340       15.9731489962
 Zr        28.3526684686       16.3407819071        0.0861715699
 Zr        32.6161828508       18.8235722021        0.0524351729
  H        10.6723597997       12.4656225362       11.8996593574
  H        11.6945799376       10.5508068037       10.6578052231
  H        15.3917266384       11.1686784609       12.7670214251
  H        14.3513167492       13.0715171212       14.0121910127
  H        13.3760917675       11.6311147973        9.1962811641
  H        50.3229535929       22.7484578980       11.9816825879
  H        49.3197810711       24.6229208674       10.6757050538
  H        45.6424060316       24.1613188033       12.8587370867
  H        46.6633347795       22.2903767874       14.1669870059
  H        47.6300547416       23.5759138719        9.2410644010
  H        14.8720862427        8.5882246663       12.6034917591
  H        50.2872313087       22.7026424461        4.0655496355
  H        49.2692582568       24.5755053933        5.3655859699
  H        45.6108381105       24.1095952932        3.1508602011
  H        46.6529642868       22.2542636107        1.8365658842
  H        47.6080221767       23.5519014866        6.8019413961
  H        40.6616732798       17.1466747166        3.4309610849
  H        10.6813285521       12.4664319822        4.0982044325
  H        11.6896464850       10.5245461134        5.3019095493
  H        15.3937932103       11.1592770771        3.2109793980
  H        14.3652440770       13.0876785915        1.9957151398
  H        13.3758269477       11.6221512722        6.7582799485
  H        24.4849591767        3.0262401695       11.9128436032
  H        25.6295465625        4.8834148842       10.6876931912
  H        23.2600714460        7.7540225730       12.8427080320
  H        22.1334796986        5.8870291967       14.0692155562
  H        23.8168465801        5.7906730015        9.2626348161
  H        36.3835246934       32.1805223322       11.9525697986
  H        35.2680386562       30.3511776652       10.6714981435
  H        37.5263087305       27.4360646368       12.8860664224
  H        38.6225727812       29.2780425759       14.1749746999
  H        37.0462768009       29.4377467113        9.2636582203
  H        25.7526584611        8.6066667940       12.6461211313
  H        36.4595618305       32.2356430504        4.1215294315
  H        35.3535472830       30.4128053115        5.4155591633
  H        37.5323169063       27.4849051704        3.1376781757
  H        38.6135010364       29.3193429881        1.8318166630
  H        37.0632556905       29.4572772625        6.8252851228
  H        46.1095191718       26.5877100403        3.3906770047
  H        24.4361326630        3.0397186081        4.0915641937
  H        25.5676609140        4.8788172274        5.3428218310
  H        23.1648392947        7.7678885411        3.2508126739
  H        22.0450715185        5.9167434421        1.9993300143
  H        23.7916043955        5.7926208305        6.8242333608
  H        25.8178937034       19.6566031764       11.9160236615
  H        23.6461035825       19.7016125834       10.6789220442
  H        22.3553668081       16.2156297106       12.8414144167
  H        24.5311285556       16.1848373720       14.0703910348
  H        23.7235195475       17.6613472139        9.2416879469
  H        35.1351561788       15.4918353082       11.9335517382
  H        37.2669085063       15.4479496553       10.6413659620
  H        38.6993500135       18.8132783881       12.9063975505
  H        36.5627206780       18.8334320301       14.2098205909
  H        37.2329239309       17.4413316793        9.2425427339
  H        20.3606743827       17.9812408629       12.6638820972
  H        35.2214419286       15.4528012677        4.0631161137
  H        37.3539158250       15.4161558513        5.3695621689
  H        38.7275479288       18.8681264236        3.2026805963
  H        36.5892595133       18.8886981075        1.8986515391
  H        37.2535066328       17.4454886378        6.7962905442
  H        35.1546684490       26.6766194793        3.3966205925
  H        25.7599193587       19.6221141000        4.1787082998
  H        23.5741471349       19.6793380903        5.3881109036
  H        22.2963649014       16.1855194337        3.2295516457
  H        24.4824752162       16.1522628052        2.0127526530
  H        23.7026185179       17.6458225149        6.8000076623
  H        14.8488982478       19.6442352372        4.1497866864
  H        17.0111906928       19.6878792722        5.3932360602
  H        18.3034047782       16.1863814622        3.2559546172
  H        16.1367845288       16.1579978866        2.0126709763
  H        16.9225617899       17.6855303621        6.8540811550
  H        46.0928046221       15.4574562351        4.0864579534
  H        43.9705431920       15.4201801680        5.4010314831
  H        42.5690313751       18.8489520361        3.2135334709
  H        44.6912316440       18.8608945237        1.8892602367
  H        44.0342884094       17.3685244123        6.8523989917
  H        20.2906306636       17.9238292272        3.4268144825
  H        46.0378413461       15.3919236643       12.0274480317
  H        43.9050432275       15.3403216555       10.7325567599
  H        42.5207444369       18.7953447739       12.8881312506
  H        44.6605153778       18.8341228209       14.1824780693
  H        44.0148227080       17.3388803252        9.2924445575
  H        46.1993464381       26.6826335443       12.6182356556
  H        14.8796758283       19.6722532610       11.8887661445
  H        17.0803953194       19.7449172358       10.7091610496
  H        18.3383767793       16.2327183597       12.8485964953
  H        16.1394004073       16.1834767387       14.0372021972
  H        16.9440772728       17.7025809389        9.2915689212
  H        29.9471263814       12.4618218613        4.2462506754
  H        28.8830553977       10.5274151393        5.4141517960
  H        25.2508973011       11.1968691702        3.2100211186
  H        26.3360205863       13.1183528471        2.0312632067
  H        27.1766914842       11.6680573438        6.7961253855
  H        31.0187318316       22.7515914036        4.0444598747
  H        32.0362009603       24.6248165577        5.3432558729
  H        35.6971840510       24.1486096522        3.1363316607
  H        34.6572277248       22.2827577944        1.8313551165
  H        33.7142575690       23.5577651236        6.7579673720
  H        25.7053437643        8.5948077288        3.4103344813
  H        30.9530072245       22.7133077698       11.9234345532
  H        31.9896797367       24.5617642469       10.6116876881
  H        35.6231444812       24.1158727608       12.8711677677
  H        34.5682510128       22.2670556939       14.1846813700
  H        33.6919817457       23.5425408217        9.1990547305
  H        40.5929851553       17.0887532967       12.6579999118
  H        29.9170873655       12.5073259241       11.9435817741
  H        28.8876052454       10.6111619976       10.6776628050
  H        25.2089081824       11.1843161609       12.8309547914
  H        26.2545665693       13.0735491487       14.0940909566
  H        27.1782995456       11.6790124876        9.2376757960
  H        16.1182579753        2.9634246187        4.1346942737
  H        14.9531724661        4.8205559246        5.3274388683
  H        17.3665377225        7.6860067831        3.2153763498
  H        18.5151716850        5.8184141823        2.0155413677
  H        16.7536496302        5.7396387904        6.7766313909
  H        44.8283603094       32.1402868609        3.9820436011
  H        45.9376642069       30.3414110894        5.3114482699
  H        43.6824832712       27.3782112705        3.1576602562
  H        42.5997065408       29.1901012298        1.8150961613
  H        44.2304912426       29.4367370437        6.7740042281
  H        14.8513844052        8.5463913070        3.3684610159
  H        44.9001316750       32.2339540768       11.9269115487
  H        46.0250250927       30.4129071349       10.6474074350
  H        43.7632977712       27.4840007129       12.8400504885
  H        42.6454738145       29.3177244272       14.1191016961
  H        44.2685624356       29.4704391032        9.2131113344
  H        35.0901788160       26.6121973094       12.6245140526
  H        16.1436156379        3.0129549670       11.8990269492
  H        14.9740505094        4.8563116935       10.6832730841
  H        17.3959941427        7.7472567232       12.7501587829
  H        18.5430766586        5.8933269179       13.9777813217
  H        16.7646905467        5.7554986873        9.2141937745
  O        10.6499823335       14.3651084504       13.4807236010
  O        12.6132011325       14.6575102517       14.5787810319
  O        49.1481211115       16.8458743626       15.9846303471
  O        50.3503312379       20.9357534347       13.6429135604
  O        48.3486058688       20.5933514425       14.6607953429
  O        11.0518201322       17.0538207274       14.4955920649
  O        50.3211180058       20.8816391492        2.4119496987
  O        48.3468024089       20.5868161535        1.3322680974
  O        49.5438432727       18.2484167045        2.0733550326
  O        12.3592768006       18.6246544631        0.0048028960
  O        48.6933052260       14.1485590346       14.7461913010
  O         8.2099318158       14.2103718320        1.3276433845
  O        10.7354239041       14.5067445843        2.6694311581
  O        12.5718152939       14.5828410478        1.3335780407
  O        22.8445965081        2.0428531646       13.4820943569
  O        21.6059720171        3.5925506730       14.5841185867
  O        42.0582393139       34.1374335408       15.9738789061
  O        37.9818475859       33.1371240374       13.5671870409
  O        39.2185977732       31.5763361080       14.6619563105
  O        20.3083832480        1.0395562734       14.4969867124
  O        38.0245729193       33.1854819936        2.4203957855
  O        39.2195336021       31.5840984015        1.3311345561
  O        40.6523053749       33.7694167850        2.0653808923
  O        18.2556329997        1.3765537361        0.0018571346
  O        44.6222280725       35.1005599891       14.7536310540
  O        24.2053845525        0.0000468441        1.3259070975
  O        22.7529768633        2.0577368625        2.5889155950
  O        21.6244563140        3.5961075385        1.3477797003
  O        27.4969730988       18.7503384830       13.4895222368
  O        26.7649384465       16.9299610685       14.6469094270
  O        30.6376184562       19.3536698268        0.0663267060
  O        33.5484054595       16.3392998441       13.5803327037
  O        34.2752309730       18.1681988232       14.7301530036
  O        29.5764833396       17.0589533558       14.5584321924
  O        33.6196183559       16.3316460187        2.4192290822
  O        34.3046552266       18.2483918137        1.4097451836
  O        31.6534731342       18.3129738138        2.1664519784
  O        30.3248139556       15.1605573060        0.0872819312
  O        28.5556320739       21.0280270639       14.8915588170
  O        28.5128971725       20.9536669295        1.4160118502
  O        27.4627261457       18.6737720247        2.6704155192
  O        26.6936373641       16.9274713415        1.4213213270
  O        13.1490882522       18.6928350201        2.5926669850
  O        13.9194934381       16.9161965437        1.4101552845
  O        50.5965225155       19.3502914608        0.0255572246
  O        47.6835186047       16.3270277320        2.4224184131