 DBCSR| CPU Multiplication driver                                           XSMM
 DBCSR| Multrec recursion limit                                              512
 DBCSR| Multiplication stack size                                           1000
 DBCSR| Maximum elements for images                                    UNLIMITED
 DBCSR| Multiplicative factor virtual images                                   1
 DBCSR| Use multiplication densification                                       T
 DBCSR| Multiplication size stacks                                             3
 DBCSR| Number of 3D layers                                               SINGLE
 DBCSR| Use MPI memory allocation                                              T
 DBCSR| Use RMA algorithm                                                      F
 DBCSR| Use Communication thread                                               T
 DBCSR| Communication thread load                                             87


  **** **** ******  **  PROGRAM STARTED AT               2021-11-27 21:39:02.861
 ***** ** ***  *** **   PROGRAM STARTED ON         node1901.palmetto.clemson.edu
 **    ****   ******    PROGRAM STARTED BY                               svicchi
 ***** **    ** ** **   PROGRAM PROCESS ID                                 22585
  **** **  *******  **  PROGRAM STARTED IN  /scratch2/svicchi/CP2K-4064482.pbs02

 CP2K| version string:                                          CP2K version 7.1
 CP2K| source code revision number:                                  git:e635599
 CP2K| cp2kflags: libint fftw3 libxc parallel mpi3 scalapack xsmm               
 CP2K| is freely available from                            https://www.cp2k.org/
 CP2K| Program compiled at                          Wed Aug 12 10:01:37 EDT 2020
 CP2K| Program compiled on                           util02.palmetto.clemson.edu
 CP2K| Program compiled for                          linux-centos8-ivybridge-gcc
 CP2K| Data directory path    /software/spackages/linux-centos8-ivybridge/gcc-8.
 CP2K| Input file name                048_Zr18_C264_Ni4_O106_H192_UKS-multi9.inp

 GLOBAL| Force Environment number                                              1
 GLOBAL| Basis set file name                                          BASIS_file
 GLOBAL| Potential file name                                     POTENTIALS_file
 GLOBAL| MM Potential file name                                     MM_POTENTIAL
 GLOBAL| Coordinate file name           048_Zr18_C264_Ni4_O106_H192_UKS-multi9.x
 GLOBAL| Method name                                                        CP2K
 GLOBAL| Project name                   info-289-048_Zr18_C264_Ni4_O106_H192_UKS
 GLOBAL| Preferred FFT library                                             FFTW3
 GLOBAL| Preferred diagonalization lib.                                       SL
 GLOBAL| Run type                                           VIBRATIONAL_ANALYSIS
 GLOBAL| All-to-all communication in single precision                          F
 GLOBAL| FFTs using library dependent lengths                                  F
 GLOBAL| Global print level                                               MEDIUM
 GLOBAL| MPI I/O enabled                                                       T
 GLOBAL| Total number of message passing processes                            16
 GLOBAL| Number of threads for this process                                    1
 GLOBAL| This output is from process                                           0
 GLOBAL| CPU model name                 Intel(R) Xeon(R) CPU E5-2665 0 @ 2.40GHz
 GLOBAL| CPUID                                                              1001

 MEMORY| system memory details [Kb]
 MEMORY|                        rank 0           min           max       average
 MEMORY| MemTotal            131713748     131713748     131713748     131713748
 MEMORY| MemFree             125667880     125644212     125700216     125671836
 MEMORY| Buffers                  6408          6408          6408          6408
 MEMORY| Cached                2634592       2634592       2634592       2634592
 MEMORY| Slab                   621872        621872        621872        621872
 MEMORY| SReclaimable           243600        243600        243600        243600
 MEMORY| MemLikelyFree       128552480     128528812     128584816     128556436


 *** Fundamental physical constants (SI units) ***

 *** Literature: B. J. Mohr and B. N. Taylor,
 ***             CODATA recommended values of the fundamental physical
 ***             constants: 2006, Web Version 5.1
 ***             http://physics.nist.gov/constants

 Speed of light in vacuum [m/s]                             2.99792458000000E+08
 Magnetic constant or permeability of vacuum [N/A**2]       1.25663706143592E-06
 Electric constant or permittivity of vacuum [F/m]          8.85418781762039E-12
 Planck constant (h) [J*s]                                  6.62606896000000E-34
 Planck constant (h-bar) [J*s]                              1.05457162825177E-34
 Elementary charge [C]                                      1.60217648700000E-19
 Electron mass [kg]                                         9.10938215000000E-31
 Electron g factor [ ]                                     -2.00231930436220E+00
 Proton mass [kg]                                           1.67262163700000E-27
 Fine-structure constant                                    7.29735253760000E-03
 Rydberg constant [1/m]                                     1.09737315685270E+07
 Avogadro constant [1/mol]                                  6.02214179000000E+23
 Boltzmann constant [J/K]                                   1.38065040000000E-23
 Atomic mass unit [kg]                                      1.66053878200000E-27
 Bohr radius [m]                                            5.29177208590000E-11

 *** Conversion factors ***

 [u] -> [a.u.]                                              1.82288848426455E+03
 [Angstrom] -> [Bohr] = [a.u.]                              1.88972613288564E+00
 [a.u.] = [Bohr] -> [Angstrom]                              5.29177208590000E-01
 [a.u.] -> [s]                                              2.41888432650478E-17
 [a.u.] -> [fs]                                             2.41888432650478E-02
 [a.u.] -> [J]                                              4.35974393937059E-18
 [a.u.] -> [N]                                              8.23872205491840E-08
 [a.u.] -> [K]                                              3.15774647902944E+05
 [a.u.] -> [kJ/mol]                                         2.62549961709828E+03
 [a.u.] -> [kcal/mol]                                       6.27509468713739E+02
 [a.u.] -> [Pa]                                             2.94210107994716E+13
 [a.u.] -> [bar]                                            2.94210107994716E+08
 [a.u.] -> [atm]                                            2.90362800883016E+08
 [a.u.] -> [eV]                                             2.72113838565563E+01
 [a.u.] -> [Hz]                                             6.57968392072181E+15
 [a.u.] -> [1/cm] (wave numbers)                            2.19474631370540E+05
 [a.u./Bohr**2] -> [1/cm]                                   5.14048714338585E+03
 

 CELL_TOP| Volume [angstrom^3]:                                        22838.217
 CELL_TOP| Vector a [angstrom    40.611     0.000     0.000    |a| =      40.611
 CELL_TOP| Vector b [angstrom    20.305    35.170     0.000    |b| =      40.611
 CELL_TOP| Vector c [angstrom     0.000     0.000    15.990    |c| =      15.990
 CELL_TOP| Angle (b,c), alpha [degree]:                                   90.000
 CELL_TOP| Angle (a,c), beta  [degree]:                                   90.000
 CELL_TOP| Angle (a,b), gamma [degree]:                                   60.000
 CELL_TOP| Requested initial symmetry:                       MONOCLINIC_GAMMA_AB
 CELL_TOP| Numerically orthorhombic:                                          NO

 CELL| Volume [angstrom^3]:                                            22838.217
 CELL| Vector a [angstrom]:      40.611     0.000     0.000    |a| =      40.611
 CELL| Vector b [angstrom]:      20.305    35.170     0.000    |b| =      40.611
 CELL| Vector c [angstrom]:       0.000     0.000    15.990    |c| =      15.990
 CELL| Angle (b,c), alpha [degree]:                                       90.000
 CELL| Angle (a,c), beta  [degree]:                                       90.000
 CELL| Angle (a,b), gamma [degree]:                                       60.000
 CELL| Requested initial symmetry:                           MONOCLINIC_GAMMA_AB
 CELL| Numerically orthorhombic:                                              NO

 CELL_REF| Volume [angstrom^3]:                                        22838.217
 CELL_REF| Vector a [angstrom    40.611     0.000     0.000    |a| =      40.611
 CELL_REF| Vector b [angstrom    20.305    35.170     0.000    |b| =      40.611
 CELL_REF| Vector c [angstrom     0.000     0.000    15.990    |c| =      15.990
 CELL_REF| Angle (b,c), alpha [degree]:                                   90.000
 CELL_REF| Angle (a,c), beta  [degree]:                                   90.000
 CELL_REF| Angle (a,b), gamma [degree]:                                   60.000
 CELL_REF| Requested initial symmetry:                       MONOCLINIC_GAMMA_AB
 CELL_REF| Numerically orthorhombic:                                          NO

 *******************************************************************************
 *******************************************************************************
 **                                                                           **
 **     #####                         ##              ##                      **
 **    ##   ##            ##          ##              ##                      **
 **   ##     ##                       ##            ######                    **
 **   ##     ##  ##   ##  ##   #####  ##  ##   ####   ##    #####    #####    **
 **   ##     ##  ##   ##  ##  ##      ## ##   ##      ##   ##   ##  ##   ##   **
 **   ##  ## ##  ##   ##  ##  ##      ####     ###    ##   ######   ######    **
 **    ##  ###   ##   ##  ##  ##      ## ##      ##   ##   ##       ##        **
 **     #######   #####   ##   #####  ##  ##  ####    ##    #####   ##        **
 **           ##                                                    ##        **
 **                                                                           **
 **                                                ... make the atoms dance   **
 **                                                                           **
 **            Copyright (C) by CP2K developers group (2000 - 2019)           **
 **                                                                           **
 *******************************************************************************

 DFT| Spin unrestricted (spin-polarized) Kohn-Sham calculation               UKS
 DFT| Multiplicity                                                             9
 DFT| Number of spin states                                                    2
 DFT| Charge                                                                   0
 DFT| Self-interaction correction (SIC)                                       NO
 DFT| Cutoffs: density                                              1.000000E-10
 DFT|          gradient                                             1.000000E-10
 DFT|          tau                                                  1.000000E-10
 DFT|          cutoff_smoothing_range                               0.000000E+00
 DFT| XC density smoothing                                                  NONE
 DFT| XC derivatives                                                          PW
 FUNCTIONAL| ROUTINE=NEW
 FUNCTIONAL| PBE:
 FUNCTIONAL| J.P.Perdew, K.Burke, M.Ernzerhof, Phys. Rev. Letter, vol. 77, n 18,
 FUNCTIONAL|  pp. 3865-3868, (1996){spin polarized}                             
 vdW POTENTIAL|                                                   Pair Potential
 vdW POTENTIAL|          DFT-D3 (Version 3.1)
 vdW POTENTIAL|          Potential Form: S. Grimme et al, JCP 132: 154104 (2010)
 vdW POTENTIAL|          BJ Damping: S. Grimme et al, JCC 32: 1456 (2011)
 vdW POTENTIAL|          Cutoff Radius [Bohr]:                             20.00
 vdW POTENTIAL|          s6 Scaling Factor:                               1.0000
 vdW POTENTIAL|          a1 Damping Factor:                               0.4289
 vdW POTENTIAL|          s8 Scaling Factor:                               0.7875
 vdW POTENTIAL|          a2 Damping Factor:                               4.4407
 vdW POTENTIAL|          Cutoff for CN calculation:                   0.1000E-05

 QS| Method:                                                                 GPW
 QS| Density plane wave grid type                        NON-SPHERICAL FULLSPACE
 QS| Number of grid levels:                                                    5
 QS| Density cutoff [a.u.]:                                                180.0
 QS| Multi grid cutoff [a.u.]: 1) grid level                               180.0
 QS|                           2) grid level                                60.0
 QS|                           3) grid level                                20.0
 QS|                           4) grid level                                 6.7
 QS|                           5) grid level                                 2.2
 QS| Grid level progression factor:                                          3.0
 QS| Relative density cutoff [a.u.]:                                        40.0
 QS| Consistent realspace mapping and integration 
 QS| Interaction thresholds: eps_pgf_orb:                                1.0E-05
 QS|                         eps_filter_matrix:                          0.0E+00
 QS|                         eps_core_charge:                            1.0E-12
 QS|                         eps_rho_gspace:                             1.0E-10
 QS|                         eps_rho_rspace:                             1.0E-10
 QS|                         eps_gvg_rspace:                             1.0E-05
 QS|                         eps_ppl:                                    1.0E-02
 QS|                         eps_ppnl:                                   1.0E-07


 ATOMIC KIND INFORMATION

  1. Atomic kind: C                                     Number of atoms:     264

     Orbital Basis Set                                     DZVP-MOLOPT-SR-GTH-q4

       Number of orbital shell sets:                                           1
       Number of orbital shells:                                               5
       Number of primitive Cartesian functions:                                5
       Number of Cartesian basis functions:                                   14
       Number of spherical basis functions:                                   13
       Norm type:                                                              2

       Normalised Cartesian orbitals:

                        Set   Shell   Orbital            Exponent    Coefficient

                          1       1    2s                5.605331       0.322515
                                                         2.113016       0.213043
                                                         0.769911      -0.209686
                                                         0.348157      -0.219794
                                                         0.128212      -0.022789

                          1       2    3s                5.605331       0.552234
                                                         2.113016       0.082072
                                                         0.769911       0.007843
                                                         0.348157       0.136893
                                                         0.128212       0.074283

                          1       3    3px               5.605331      -0.703879
                                                         2.113016      -0.642521
                                                         0.769911      -0.374851
                                                         0.348157      -0.139743
                                                         0.128212      -0.027849
                          1       3    3py               5.605331      -0.703879
                                                         2.113016      -0.642521
                                                         0.769911      -0.374851
                                                         0.348157      -0.139743
                                                         0.128212      -0.027849
                          1       3    3pz               5.605331      -0.703879
                                                         2.113016      -0.642521
                                                         0.769911      -0.374851
                                                         0.348157      -0.139743
                                                         0.128212      -0.027849

                          1       4    4px               5.605331      -0.480376
                                                         2.113016      -0.552894
                                                         0.769911      -0.316145
                                                         0.348157       0.210505
                                                         0.128212       0.076095
                          1       4    4py               5.605331      -0.480376
                                                         2.113016      -0.552894
                                                         0.769911      -0.316145
                                                         0.348157       0.210505
                                                         0.128212       0.076095
                          1       4    4pz               5.605331      -0.480376
                                                         2.113016      -0.552894
                                                         0.769911      -0.316145
                                                         0.348157       0.210505
                                                         0.128212       0.076095

                          1       5    4dx2              5.605331       0.640026
                                                         2.113016       0.274300
                                                         0.769911       0.446711
                                                         0.348157       0.028674
                                                         0.128212       0.029790
                          1       5    4dxy              5.605331       1.108557
                                                         2.113016       0.475102
                                                         0.769911       0.773726
                                                         0.348157       0.049666
                                                         0.128212       0.051599
                          1       5    4dxz              5.605331       1.108557
                                                         2.113016       0.475102
                                                         0.769911       0.773726
                                                         0.348157       0.049666
                                                         0.128212       0.051599
                          1       5    4dy2              5.605331       0.640026
                                                         2.113016       0.274300
                                                         0.769911       0.446711
                                                         0.348157       0.028674
                                                         0.128212       0.029790
                          1       5    4dyz              5.605331       1.108557
                                                         2.113016       0.475102
                                                         0.769911       0.773726
                                                         0.348157       0.049666
                                                         0.128212       0.051599
                          1       5    4dz2              5.605331       0.640026
                                                         2.113016       0.274300
                                                         0.769911       0.446711
                                                         0.348157       0.028674
                                                         0.128212       0.029790

     GTH Potential information for                                    GTH-PBE-q4

       Description:                       Goedecker-Teter-Hutter pseudopotential
                                           Goedecker et al., PRB 54, 1703 (1996)
                                          Hartwigsen et al., PRB 58, 3641 (1998)
                                                      Krack, TCA 114, 145 (2005)

       Gaussian exponent of the core charge distribution:               4.364419
       Electronic configuration (s p d ...):                               2   2

       Parameters of the local part of the GTH pseudopotential:

                          rloc        C1          C2          C3          C4
                        0.338471   -8.803674    1.339211

       Parameters of the non-local part of the GTH pseudopotential:

                   l      r(l)      h(i,j,l)

                   0    0.302576    9.622487
                   1    0.291507

  2. Atomic kind: Zr                                    Number of atoms:      18

     Orbital Basis Set                                    DZVP-MOLOPT-SR-GTH-q12

       Number of orbital shell sets:                                           1
       Number of orbital shells:                                               8
       Number of primitive Cartesian functions:                                7
       Number of Cartesian basis functions:                                   31
       Number of spherical basis functions:                                   26
       Norm type:                                                              2

       Normalised Cartesian orbitals:

                        Set   Shell   Orbital            Exponent    Coefficient

                          1       1    2s                7.568386      -0.292925
                                                         2.940870       1.053802
                                                         1.478550      -0.194175
                                                         0.699653      -0.477593
                                                         0.314575      -0.092850
                                                         0.129869       0.000474
                                                         0.046851      -0.000485

                          1       2    3s                7.568386      -0.107602
                                                         2.940870       0.453694
                                                         1.478550      -0.133469
                                                         0.699653      -0.242646
                                                         0.314575      -0.112324
                                                         0.129869       0.079936
                                                         0.046851       0.057275

                          1       3    4s                7.568386      -0.039443
                                                         2.940870      -0.239516
                                                         1.478550       0.462939
                                                         0.699653       0.054202
                                                         0.314575       0.378792
                                                         0.129869      -0.467495
                                                         0.046851       0.135277

                          1       4    3px               7.568386      -0.367032
                                                         2.940870       1.199938
                                                         1.478550      -0.729727
                                                         0.699653      -0.527717
                                                         0.314575      -0.102074
                                                         0.129869      -0.002163
                                                         0.046851      -0.000016
                          1       4    3py               7.568386      -0.367032
                                                         2.940870       1.199938
                                                         1.478550      -0.729727
                                                         0.699653      -0.527717
                                                         0.314575      -0.102074
                                                         0.129869      -0.002163
                                                         0.046851      -0.000016
                          1       4    3pz               7.568386      -0.367032
                                                         2.940870       1.199938
                                                         1.478550      -0.729727
                                                         0.699653      -0.527717
                                                         0.314575      -0.102074
                                                         0.129869      -0.002163
                                                         0.046851      -0.000016

                          1       5    4px               7.568386      -0.041149
                                                         2.940870       0.296409
                                                         1.478550      -0.285807
                                                         0.699653      -0.254468
                                                         0.314575       0.008755
                                                         0.129869       0.053085
                                                         0.046851       0.019526
                          1       5    4py               7.568386      -0.041149
                                                         2.940870       0.296409
                                                         1.478550      -0.285807
                                                         0.699653      -0.254468
                                                         0.314575       0.008755
                                                         0.129869       0.053085
                                                         0.046851       0.019526
                          1       5    4pz               7.568386      -0.041149
                                                         2.940870       0.296409
                                                         1.478550      -0.285807
                                                         0.699653      -0.254468
                                                         0.314575       0.008755
                                                         0.129869       0.053085
                                                         0.046851       0.019526

                          1       6    4dx2              7.568386      -0.104612
                                                         2.940870      -0.141339
                                                         1.478550       0.540679
                                                         0.699653       0.284252
                                                         0.314575       0.094561
                                                         0.129869       0.012195
                                                         0.046851       0.000412
                          1       6    4dxy              7.568386      -0.181193
                                                         2.940870      -0.244806
                                                         1.478550       0.936483
                                                         0.699653       0.492339
                                                         0.314575       0.163785
                                                         0.129869       0.021122
                                                         0.046851       0.000713
                          1       6    4dxz              7.568386      -0.181193
                                                         2.940870      -0.244806
                                                         1.478550       0.936483
                                                         0.699653       0.492339
                                                         0.314575       0.163785
                                                         0.129869       0.021122
                                                         0.046851       0.000713
                          1       6    4dy2              7.568386      -0.104612
                                                         2.940870      -0.141339
                                                         1.478550       0.540679
                                                         0.699653       0.284252
                                                         0.314575       0.094561
                                                         0.129869       0.012195
                                                         0.046851       0.000412
                          1       6    4dyz              7.568386      -0.181193
                                                         2.940870      -0.244806
                                                         1.478550       0.936483
                                                         0.699653       0.492339
                                                         0.314575       0.163785
                                                         0.129869       0.021122
                                                         0.046851       0.000713
                          1       6    4dz2              7.568386      -0.104612
                                                         2.940870      -0.141339
                                                         1.478550       0.540679
                                                         0.699653       0.284252
                                                         0.314575       0.094561
                                                         0.129869       0.012195
                                                         0.046851       0.000412

                          1       7    5dx2              7.568386      -0.107600
                                                         2.940870       0.230973
                                                         1.478550      -0.200541
                                                         0.699653      -0.193347
                                                         0.314575       0.007888
                                                         0.129869       0.006706
                                                         0.046851       0.006900
                          1       7    5dxy              7.568386      -0.186369
                                                         2.940870       0.400056
                                                         1.478550      -0.347346
                                                         0.699653      -0.334887
                                                         0.314575       0.013663
                                                         0.129869       0.011615
                                                         0.046851       0.011951
                          1       7    5dxz              7.568386      -0.186369
                                                         2.940870       0.400056
                                                         1.478550      -0.347346
                                                         0.699653      -0.334887
                                                         0.314575       0.013663
                                                         0.129869       0.011615
                                                         0.046851       0.011951
                          1       7    5dy2              7.568386      -0.107600
                                                         2.940870       0.230973
                                                         1.478550      -0.200541
                                                         0.699653      -0.193347
                                                         0.314575       0.007888
                                                         0.129869       0.006706
                                                         0.046851       0.006900
                          1       7    5dyz              7.568386      -0.186369
                                                         2.940870       0.400056
                                                         1.478550      -0.347346
                                                         0.699653      -0.334887
                                                         0.314575       0.013663
                                                         0.129869       0.011615
                                                         0.046851       0.011951
                          1       7    5dz2              7.568386      -0.107600
                                                         2.940870       0.230973
                                                         1.478550      -0.200541
                                                         0.699653      -0.193347
                                                         0.314575       0.007888
                                                         0.129869       0.006706
                                                         0.046851       0.006900

                          1       8    5fx3              7.568386       0.371480
                                                         2.940870      -0.155968
                                                         1.478550      -0.211323
                                                         0.699653      -0.255968
                                                         0.314575      -0.046738
                                                         0.129869      -0.005674
                                                         0.046851       0.000171
                          1       8    5fx2y             7.568386       0.830655
                                                         2.940870      -0.348756
                                                         1.478550      -0.472533
                                                         0.699653      -0.572361
                                                         0.314575      -0.104510
                                                         0.129869      -0.012687
                                                         0.046851       0.000382
                          1       8    5fx2z             7.568386       0.830655
                                                         2.940870      -0.348756
                                                         1.478550      -0.472533
                                                         0.699653      -0.572361
                                                         0.314575      -0.104510
                                                         0.129869      -0.012687
                                                         0.046851       0.000382
                          1       8    5fxy2             7.568386       0.830655
                                                         2.940870      -0.348756
                                                         1.478550      -0.472533
                                                         0.699653      -0.572361
                                                         0.314575      -0.104510
                                                         0.129869      -0.012687
                                                         0.046851       0.000382
                          1       8    5fxyz             7.568386       1.438737
                                                         2.940870      -0.604063
                                                         1.478550      -0.818452
                                                         0.699653      -0.991359
                                                         0.314575      -0.181017
                                                         0.129869      -0.021975
                                                         0.046851       0.000662
                          1       8    5fxz2             7.568386       0.830655
                                                         2.940870      -0.348756
                                                         1.478550      -0.472533
                                                         0.699653      -0.572361
                                                         0.314575      -0.104510
                                                         0.129869      -0.012687
                                                         0.046851       0.000382
                          1       8    5fy3              7.568386       0.371480
                                                         2.940870      -0.155968
                                                         1.478550      -0.211323
                                                         0.699653      -0.255968
                                                         0.314575      -0.046738
                                                         0.129869      -0.005674
                                                         0.046851       0.000171
                          1       8    5fy2z             7.568386       0.830655
                                                         2.940870      -0.348756
                                                         1.478550      -0.472533
                                                         0.699653      -0.572361
                                                         0.314575      -0.104510
                                                         0.129869      -0.012687
                                                         0.046851       0.000382
                          1       8    5fyz2             7.568386       0.830655
                                                         2.940870      -0.348756
                                                         1.478550      -0.472533
                                                         0.699653      -0.572361
                                                         0.314575      -0.104510
                                                         0.129869      -0.012687
                                                         0.046851       0.000382
                          1       8    5fz3              7.568386       0.371480
                                                         2.940870      -0.155968
                                                         1.478550      -0.211323
                                                         0.699653      -0.255968
                                                         0.314575      -0.046738
                                                         0.129869      -0.005674
                                                         0.046851       0.000171

     GTH Potential information for                                   GTH-PBE-q12

       Description:                       Goedecker-Teter-Hutter pseudopotential
                                           Goedecker et al., PRB 54, 1703 (1996)
                                          Hartwigsen et al., PRB 58, 3641 (1998)
                                                      Krack, TCA 114, 145 (2005)

       Gaussian exponent of the core charge distribution:               2.263468
       Electronic configuration (s p d ...):                           4   6   2

       Parameters of the local part of the GTH pseudopotential:

                          rloc        C1          C2          C3          C4
                        0.470000    7.796057   -1.893210

       Parameters of the non-local part of the GTH pseudopotential:

                   l      r(l)      h(i,j,l)

                   0    0.259829   23.380874   -8.571939
                                   -8.571939   11.066326
                   1    0.288969    8.592766   -5.377358
                                   -5.377358    6.362576
                   2    0.581245    0.027811    0.276862
                                    0.276862   -0.313932

  3. Atomic kind: H                                     Number of atoms:     192

     Orbital Basis Set                                     DZVP-MOLOPT-SR-GTH-q1

       Number of orbital shell sets:                                           1
       Number of orbital shells:                                               3
       Number of primitive Cartesian functions:                                5
       Number of Cartesian basis functions:                                    5
       Number of spherical basis functions:                                    5
       Norm type:                                                              2

       Normalised Cartesian orbitals:

                        Set   Shell   Orbital            Exponent    Coefficient

                          1       1    2s               10.068468      -0.133023
                                                         2.680223      -0.177618
                                                         0.791502      -0.258419
                                                         0.239116      -0.107525
                                                         0.082193      -0.014019

                          1       2    3s               10.068468       0.344673
                                                         2.680223       1.819821
                                                         0.791502      -0.999069
                                                         0.239116       0.017430
                                                         0.082193       0.082660

                          1       3    3px              10.068468       0.155326
                                                         2.680223       0.367157
                                                         0.791502       0.311480
                                                         0.239116       0.080105
                                                         0.082193       0.033440
                          1       3    3py              10.068468       0.155326
                                                         2.680223       0.367157
                                                         0.791502       0.311480
                                                         0.239116       0.080105
                                                         0.082193       0.033440
                          1       3    3pz              10.068468       0.155326
                                                         2.680223       0.367157
                                                         0.791502       0.311480
                                                         0.239116       0.080105
                                                         0.082193       0.033440

     GTH Potential information for                                    GTH-PBE-q1

       Description:                       Goedecker-Teter-Hutter pseudopotential
                                           Goedecker et al., PRB 54, 1703 (1996)
                                          Hartwigsen et al., PRB 58, 3641 (1998)
                                                      Krack, TCA 114, 145 (2005)

       Gaussian exponent of the core charge distribution:              12.500000
       Electronic configuration (s p d ...):                                   1

       Parameters of the local part of the GTH pseudopotential:

                          rloc        C1          C2          C3          C4
                        0.200000   -4.178900    0.724463

  4. Atomic kind: O                                     Number of atoms:     106

     Orbital Basis Set                                     DZVP-MOLOPT-SR-GTH-q6

       Number of orbital shell sets:                                           1
       Number of orbital shells:                                               5
       Number of primitive Cartesian functions:                                5
       Number of Cartesian basis functions:                                   14
       Number of spherical basis functions:                                   13
       Norm type:                                                              2

       Normalised Cartesian orbitals:

                        Set   Shell   Orbital            Exponent    Coefficient

                          1       1    2s               10.389228       0.396646
                                                         3.849621       0.208811
                                                         1.388401      -0.301641
                                                         0.496955      -0.274061
                                                         0.162492      -0.033677

                          1       2    3s               10.389228       0.303673
                                                         3.849621       0.240943
                                                         1.388401      -0.313066
                                                         0.496955      -0.043055
                                                         0.162492       0.213991

                          1       3    3px              10.389228      -1.530415
                                                         3.849621      -1.371928
                                                         1.388401      -0.761951
                                                         0.496955      -0.253695
                                                         0.162492      -0.035541
                          1       3    3py              10.389228      -1.530415
                                                         3.849621      -1.371928
                                                         1.388401      -0.761951
                                                         0.496955      -0.253695
                                                         0.162492      -0.035541
                          1       3    3pz              10.389228      -1.530415
                                                         3.849621      -1.371928
                                                         1.388401      -0.761951
                                                         0.496955      -0.253695
                                                         0.162492      -0.035541

                          1       4    4px              10.389228      -0.565392
                                                         3.849621      -0.038231
                                                         1.388401      -0.382373
                                                         0.496955       0.179070
                                                         0.162492       0.122714
                          1       4    4py              10.389228      -0.565392
                                                         3.849621      -0.038231
                                                         1.388401      -0.382373
                                                         0.496955       0.179070
                                                         0.162492       0.122714
                          1       4    4pz              10.389228      -0.565392
                                                         3.849621      -0.038231
                                                         1.388401      -0.382373
                                                         0.496955       0.179070
                                                         0.162492       0.122714

                          1       5    4dx2             10.389228       1.867377
                                                         3.849621       0.670994
                                                         1.388401       1.353441
                                                         0.496955       0.273538
                                                         0.162492       0.006620
                          1       5    4dxy             10.389228       3.234392
                                                         3.849621       1.162195
                                                         1.388401       2.344229
                                                         0.496955       0.473781
                                                         0.162492       0.011466
                          1       5    4dxz             10.389228       3.234392
                                                         3.849621       1.162195
                                                         1.388401       2.344229
                                                         0.496955       0.473781
                                                         0.162492       0.011466
                          1       5    4dy2             10.389228       1.867377
                                                         3.849621       0.670994
                                                         1.388401       1.353441
                                                         0.496955       0.273538
                                                         0.162492       0.006620
                          1       5    4dyz             10.389228       3.234392
                                                         3.849621       1.162195
                                                         1.388401       2.344229
                                                         0.496955       0.473781
                                                         0.162492       0.011466
                          1       5    4dz2             10.389228       1.867377
                                                         3.849621       0.670994
                                                         1.388401       1.353441
                                                         0.496955       0.273538
                                                         0.162492       0.006620

     GTH Potential information for                                    GTH-PBE-q6

       Description:                       Goedecker-Teter-Hutter pseudopotential
                                           Goedecker et al., PRB 54, 1703 (1996)
                                          Hartwigsen et al., PRB 58, 3641 (1998)
                                                      Krack, TCA 114, 145 (2005)

       Gaussian exponent of the core charge distribution:               8.360253
       Electronic configuration (s p d ...):                               2   4

       Parameters of the local part of the GTH pseudopotential:

                          rloc        C1          C2          C3          C4
                        0.244554  -16.667215    2.487311

       Parameters of the non-local part of the GTH pseudopotential:

                   l      r(l)      h(i,j,l)

                   0    0.220956   18.337458
                   1    0.211332

  5. Atomic kind: Ni                                    Number of atoms:       4

     Orbital Basis Set                                    DZVP-MOLOPT-SR-GTH-q18

       Number of orbital shell sets:                                           1
       Number of orbital shells:                                               8
       Number of primitive Cartesian functions:                                6
       Number of Cartesian basis functions:                                   31
       Number of spherical basis functions:                                   26
       Norm type:                                                              2

       Normalised Cartesian orbitals:

                        Set   Shell   Orbital            Exponent    Coefficient

                          1       1    2s               10.077428      -0.684558
                                                         5.847736      -0.844524
                                                         2.494033       1.088856
                                                         0.988355       0.395503
                                                         0.344978       0.010224
                                                         0.099466      -0.003250

                          1       2    3s               10.077428       0.096747
                                                         5.847736       0.162504
                                                         2.494033      -0.297192
                                                         0.988355      -0.319752
                                                         0.344978       0.088318
                                                         0.099466       0.118587

                          1       3    4s               10.077428       0.036437
                                                         5.847736      -0.381480
                                                         2.494033       0.003759
                                                         0.988355      -1.048256
                                                         0.344978       0.855825
                                                         0.099466      -0.176350

                          1       4    3px              10.077428      -3.133913
                                                         5.847736       3.027656
                                                         2.494033       2.353227
                                                         0.988355       0.554184
                                                         0.344978       0.019462
                                                         0.099466      -0.000291
                          1       4    3py              10.077428      -3.133913
                                                         5.847736       3.027656
                                                         2.494033       2.353227
                                                         0.988355       0.554184
                                                         0.344978       0.019462
                                                         0.099466      -0.000291
                          1       4    3pz              10.077428      -3.133913
                                                         5.847736       3.027656
                                                         2.494033       2.353227
                                                         0.988355       0.554184
                                                         0.344978       0.019462
                                                         0.099466      -0.000291

                          1       5    4px              10.077428      -0.112729
                                                         5.847736      -0.114008
                                                         2.494033      -0.347303
                                                         0.988355      -0.110323
                                                         0.344978       0.154096
                                                         0.099466       0.058386
                          1       5    4py              10.077428      -0.112729
                                                         5.847736      -0.114008
                                                         2.494033      -0.347303
                                                         0.988355      -0.110323
                                                         0.344978       0.154096
                                                         0.099466       0.058386
                          1       5    4pz              10.077428      -0.112729
                                                         5.847736      -0.114008
                                                         2.494033      -0.347303
                                                         0.988355      -0.110323
                                                         0.344978       0.154096
                                                         0.099466       0.058386

                          1       6    4dx2             10.077428       8.232726
                                                         5.847736       9.105758
                                                         2.494033       2.849835
                                                         0.988355       0.554319
                                                         0.344978       0.067245
                                                         0.099466       0.001940
                          1       6    4dxy             10.077428      14.259500
                                                         5.847736      15.771636
                                                         2.494033       4.936060
                                                         0.988355       0.960109
                                                         0.344978       0.116472
                                                         0.099466       0.003360
                          1       6    4dxz             10.077428      14.259500
                                                         5.847736      15.771636
                                                         2.494033       4.936060
                                                         0.988355       0.960109
                                                         0.344978       0.116472
                                                         0.099466       0.003360
                          1       6    4dy2             10.077428       8.232726
                                                         5.847736       9.105758
                                                         2.494033       2.849835
                                                         0.988355       0.554319
                                                         0.344978       0.067245
                                                         0.099466       0.001940
                          1       6    4dyz             10.077428      14.259500
                                                         5.847736      15.771636
                                                         2.494033       4.936060
                                                         0.988355       0.960109
                                                         0.344978       0.116472
                                                         0.099466       0.003360
                          1       6    4dz2             10.077428       8.232726
                                                         5.847736       9.105758
                                                         2.494033       2.849835
                                                         0.988355       0.554319
                                                         0.344978       0.067245
                                                         0.099466       0.001940

                          1       7    5dx2             10.077428      -2.715373
                                                         5.847736      -4.020640
                                                         2.494033      -1.397569
                                                         0.988355      -0.076143
                                                         0.344978       0.033435
                                                         0.099466       0.026032
                          1       7    5dxy             10.077428      -4.703164
                                                         5.847736      -6.963952
                                                         2.494033      -2.420661
                                                         0.988355      -0.131883
                                                         0.344978       0.057911
                                                         0.099466       0.045088
                          1       7    5dxz             10.077428      -4.703164
                                                         5.847736      -6.963952
                                                         2.494033      -2.420661
                                                         0.988355      -0.131883
                                                         0.344978       0.057911
                                                         0.099466       0.045088
                          1       7    5dy2             10.077428      -2.715373
                                                         5.847736      -4.020640
                                                         2.494033      -1.397569
                                                         0.988355      -0.076143
                                                         0.344978       0.033435
                                                         0.099466       0.026032
                          1       7    5dyz             10.077428      -4.703164
                                                         5.847736      -6.963952
                                                         2.494033      -2.420661
                                                         0.988355      -0.131883
                                                         0.344978       0.057911
                                                         0.099466       0.045088
                          1       7    5dz2             10.077428      -2.715373
                                                         5.847736      -4.020640
                                                         2.494033      -1.397569
                                                         0.988355      -0.076143
                                                         0.344978       0.033435
                                                         0.099466       0.026032

                          1       8    5fx3             10.077428      -0.467694
                                                         5.847736       0.618100
                                                         2.494033       0.066069
                                                         0.988355       0.262898
                                                         0.344978       0.004720
                                                         0.099466       0.007748
                          1       8    5fx2y            10.077428      -1.045795
                                                         5.847736       1.382114
                                                         2.494033       0.147734
                                                         0.988355       0.587859
                                                         0.344978       0.010555
                                                         0.099466       0.017325
                          1       8    5fx2z            10.077428      -1.045795
                                                         5.847736       1.382114
                                                         2.494033       0.147734
                                                         0.988355       0.587859
                                                         0.344978       0.010555
                                                         0.099466       0.017325
                          1       8    5fxy2            10.077428      -1.045795
                                                         5.847736       1.382114
                                                         2.494033       0.147734
                                                         0.988355       0.587859
                                                         0.344978       0.010555
                                                         0.099466       0.017325
                          1       8    5fxyz            10.077428      -1.811371
                                                         5.847736       2.393892
                                                         2.494033       0.255883
                                                         0.988355       1.018201
                                                         0.344978       0.018282
                                                         0.099466       0.030008
                          1       8    5fxz2            10.077428      -1.045795
                                                         5.847736       1.382114
                                                         2.494033       0.147734
                                                         0.988355       0.587859
                                                         0.344978       0.010555
                                                         0.099466       0.017325
                          1       8    5fy3             10.077428      -0.467694
                                                         5.847736       0.618100
                                                         2.494033       0.066069
                                                         0.988355       0.262898
                                                         0.344978       0.004720
                                                         0.099466       0.007748
                          1       8    5fy2z            10.077428      -1.045795
                                                         5.847736       1.382114
                                                         2.494033       0.147734
                                                         0.988355       0.587859
                                                         0.344978       0.010555
                                                         0.099466       0.017325
                          1       8    5fyz2            10.077428      -1.045795
                                                         5.847736       1.382114
                                                         2.494033       0.147734
                                                         0.988355       0.587859
                                                         0.344978       0.010555
                                                         0.099466       0.017325
                          1       8    5fz3             10.077428      -0.467694
                                                         5.847736       0.618100
                                                         2.494033       0.066069
                                                         0.988355       0.262898
                                                         0.344978       0.004720
                                                         0.099466       0.007748

     GTH Potential information for                                   GTH-PBE-q18

       Description:                       Goedecker-Teter-Hutter pseudopotential
                                           Goedecker et al., PRB 54, 1703 (1996)
                                          Hartwigsen et al., PRB 58, 3641 (1998)
                                                      Krack, TCA 114, 145 (2005)

       Gaussian exponent of the core charge distribution:               4.081633
       Electronic configuration (s p d ...):                           4   6   8

       Parameters of the local part of the GTH pseudopotential:

                          rloc        C1          C2          C3          C4
                        0.350000    2.102166    0.648484

       Parameters of the non-local part of the GTH pseudopotential:

                   l      r(l)      h(i,j,l)

                   0    0.261295    0.622658    9.970227
                                    9.970227  -12.871507
                   1    0.224253  -11.142708   12.429566
                                   12.429566  -14.706861
                   2    0.215348  -12.628146


 MOLECULE KIND INFORMATION


 All atoms are their own molecule, skipping detailed information


 TOTAL NUMBERS AND MAXIMUM NUMBERS

  Total number of            - Atomic kinds:                                   5
                             - Atoms:                                        584
                             - Shell sets:                                   584
                             - Shells:                                      2602
                             - Primitive Cartesian functions:               2960
                             - Cartesian basis functions:                   6822
                             - Spherical basis functions:                   6342

  Maximum angular momentum of- Orbital basis functions:                        3
                             - Local part of the GTH pseudopotential:          2
                             - Non-local part of the GTH pseudopotential:      4


 MODULE QUICKSTEP:  ATOMIC COORDINATES IN angstrom

  Atom  Kind  Element       X           Y           Z          Z(eff)       Mass

       1     1 C    6   11.858791   14.053481   13.736457      4.00      12.0107
       2     1 C    6   12.456256   12.890550   13.018195      4.00      12.0107
       3     1 C    6   11.704517   12.171576   12.076611      4.00      12.0107
       4     1 C    6   12.280883   11.109369   11.384267      4.00      12.0107
       5     1 C    6   13.621489   10.739626   11.611914      4.00      12.0107
       6     1 C    6   14.354673   11.443233   12.585350      4.00      12.0107
       7     1 C    6   13.781811   12.508224   13.276852      4.00      12.0107
       8     1 C    6   14.261028    9.648956   10.838536      4.00      12.0107
       9     1 C    6   14.256346    9.656931    9.416843      4.00      12.0107
      10     1 C    6   13.743181   10.759049    8.662940      4.00      12.0107
      11     1 C    6   49.126925   21.233210   13.874513      4.00      12.0107
      12     1 C    6   48.550230   22.401164   13.147445      4.00      12.0107
      13     1 C    6   49.300244   23.068500   12.166439      4.00      12.0107
      14     1 C    6   48.733278   24.107637   11.433256      4.00      12.0107
      15     1 C    6   47.402758   24.509318   11.661937      4.00      12.0107
      16     1 C    6   46.671857   23.860458   12.675493      4.00      12.0107
      17     1 C    6   47.234320   22.815566   13.404836      4.00      12.0107
      18     1 C    6   46.772464   25.586958   10.864646      4.00      12.0107
      19     1 C    6   46.761435   25.557325    9.442888      4.00      12.0107
      20     1 C    6   47.261449   24.442269    8.699390      4.00      12.0107
      21     1 C    6   14.860333    8.570631    8.703572      4.00      12.0107
      22     1 C    6   14.891780    8.596999   11.515188      4.00      12.0107
      23     1 C    6   49.113350   21.203511    2.150467      4.00      12.0107
      24     1 C    6   48.528030   22.364902    2.877588      4.00      12.0107
      25     1 C    6   49.267204   23.025532    3.870602      4.00      12.0107
      26     1 C    6   48.690874   24.060104    4.602038      4.00      12.0107
      27     1 C    6   47.360491   24.456941    4.363733      4.00      12.0107
      28     1 C    6   46.640174   23.812191    3.340040      4.00      12.0107
      29     1 C    6   47.213721   22.776274    2.608280      4.00      12.0107
      30     1 C    6   46.722014   25.531887    5.154753      4.00      12.0107
      31     1 C    6   46.733704   25.528196    6.576456      4.00      12.0107
      32     1 C    6   47.249139   24.428979    7.332838      4.00      12.0107
      33     1 C    6   40.635929   17.158639    7.327659      4.00      12.0107
      34     1 C    6   40.655145   17.182378    4.518654      4.00      12.0107
      35     1 C    6   11.883051   14.086507    2.290595      4.00      12.0107
      36     1 C    6   12.472383   12.910774    2.994864      4.00      12.0107
      37     1 C    6   11.714848   12.177501    3.920898      4.00      12.0107
      38     1 C    6   12.281449   11.095072    4.589332      4.00      12.0107
      39     1 C    6   13.620310   10.721444    4.357574      4.00      12.0107
      40     1 C    6   14.358321   11.437075    3.396839      4.00      12.0107
      41     1 C    6   13.792863   12.518222    2.724138      4.00      12.0107
      42     1 C    6   14.253929    9.624693    5.127976      4.00      12.0107
      43     1 C    6   14.252629    9.644636    6.549813      4.00      12.0107
      44     1 C    6   13.742671   10.753536    7.296899      4.00      12.0107
      45     1 C    6   22.512826    3.244206   13.748213      4.00      12.0107
      46     1 C    6   23.230132    4.348320   13.049197      4.00      12.0107
      47     1 C    6   24.226654    4.065559   12.103263      4.00      12.0107
      48     1 C    6   24.856807    5.103181   11.421186      4.00      12.0107
      49     1 C    6   24.506292    6.445945   11.664963      4.00      12.0107
      50     1 C    6   23.538075    6.720275   12.648047      4.00      12.0107
      51     1 C    6   22.903217    5.684378   13.328524      4.00      12.0107
      52     1 C    6   25.114492    7.550725   10.888517      4.00      12.0107
      53     1 C    6   25.083679    7.544493    9.467004      4.00      12.0107
      54     1 C    6   24.377998    6.547029    8.721664      4.00      12.0107
      55     1 C    6   38.303846   31.929057   13.843274      4.00      12.0107
      56     1 C    6   37.577985   30.837835   13.132567      4.00      12.0107
      57     1 C    6   36.621936   31.138110   12.150359      4.00      12.0107
      58     1 C    6   36.009806   30.115141   11.431331      4.00      12.0107
      59     1 C    6   36.338801   28.766998   11.673466      4.00      12.0107
      60     1 C    6   37.264972   28.474300   12.692182      4.00      12.0107
      61     1 C    6   37.881519   29.495857   13.409593      4.00      12.0107
      62     1 C    6   35.741439   27.672362   10.876463      4.00      12.0107
      63     1 C    6   35.776220   27.684956    9.455247      4.00      12.0107
      64     1 C    6   36.481609   28.687529    8.717764      4.00      12.0107
      65     1 C    6   25.706884    8.613729    8.746210      4.00      12.0107
      66     1 C    6   25.715782    8.623894   11.558366      4.00      12.0107
      67     1 C    6   38.328988   31.961948    2.160953      4.00      12.0107
      68     1 C    6   37.608970   30.887044    2.901690      4.00      12.0107
      69     1 C    6   36.682960   31.192212    3.910812      4.00      12.0107
      70     1 C    6   36.076791   30.170980    4.639892      4.00      12.0107
      71     1 C    6   36.382335   28.819457    4.382836      4.00      12.0107
      72     1 C    6   37.285071   28.524340    3.343017      4.00      12.0107
      73     1 C    6   37.893464   29.541947    2.615440      4.00      12.0107
      74     1 C    6   35.780006   27.717381    5.166972      4.00      12.0107
      75     1 C    6   35.795948   27.707911    6.588791      4.00      12.0107
      76     1 C    6   36.490641   28.698786    7.351250      4.00      12.0107
      77     1 C    6   46.135595   26.620764    7.286610      4.00      12.0107
      78     1 C    6   46.088049   26.580252    4.478712      4.00      12.0107
      79     1 C    6   22.460662    3.255757    2.262832      4.00      12.0107
      80     1 C    6   23.154460    4.364335    2.986132      4.00      12.0107
      81     1 C    6   24.157744    4.077960    3.925560      4.00      12.0107
      82     1 C    6   24.785848    5.107820    4.621775      4.00      12.0107
      83     1 C    6   24.430841    6.453649    4.400990      4.00      12.0107
      84     1 C    6   23.450471    6.733361    3.430180      4.00      12.0107
      85     1 C    6   22.817725    5.703711    2.734465      4.00      12.0107
      86     1 C    6   25.062628    7.551281    5.175046      4.00      12.0107
      87     1 C    6   25.057547    7.544269    6.597860      4.00      12.0107
      88     1 C    6   24.364074    6.547821    7.355000      4.00      12.0107
      89     1 C    6   26.623819   17.859140   13.778101      4.00      12.0107
      90     1 C    6   25.315275   17.905107   13.053166      4.00      12.0107
      91     1 C    6   25.056041   18.901561   12.098620      4.00      12.0107
      92     1 C    6   23.843321   18.921736   11.411608      4.00      12.0107
      93     1 C    6   22.852536   17.948853   11.657836      4.00      12.0107
      94     1 C    6   23.108289   16.975488   12.641877      4.00      12.0107
      95     1 C    6   24.323158   16.949911   13.325910      4.00      12.0107
      96     1 C    6   21.578798   17.933623   10.893850      4.00      12.0107
      97     1 C    6   21.578427   17.908327    9.471457      4.00      12.0107
      98     1 C    6   22.783670   17.781960    8.710887      4.00      12.0107
      99     1 C    6   34.423544   17.225894   13.880093      4.00      12.0107
     100     1 C    6   35.720168   17.170587   13.145100      4.00      12.0107
     101     1 C    6   35.922566   16.213077   12.139213      4.00      12.0107
     102     1 C    6   37.109410   16.198678   11.412649      4.00      12.0107
     103     1 C    6   38.123171   17.141379   11.671192      4.00      12.0107
     104     1 C    6   37.923623   18.077891   12.703119      4.00      12.0107
     105     1 C    6   36.735138   18.096690   13.428600      4.00      12.0107
     106     1 C    6   39.379351   17.152054   10.889663      4.00      12.0107
     107     1 C    6   39.376706   17.176869    9.468459      4.00      12.0107
     108     1 C    6   38.170910   17.311397    8.710255      4.00      12.0107
     109     1 C    6   20.331922   17.924878    8.762789      4.00      12.0107
     110     1 C    6   20.353848   17.937937   11.576135      4.00      12.0107
     111     1 C    6   34.476352   17.249499    2.184996      4.00      12.0107
     112     1 C    6   35.778440   17.179846    2.911452      4.00      12.0107
     113     1 C    6   35.997012   16.195175    3.886929      4.00      12.0107
     114     1 C    6   37.182037   16.183407    4.617562      4.00      12.0107
     115     1 C    6   38.176985   17.154043    4.389171      4.00      12.0107
     116     1 C    6   37.964574   18.113507    3.382444      4.00      12.0107
     117     1 C    6   36.776781   18.131368    2.656244      4.00      12.0107
     118     1 C    6   39.424438   17.174755    5.183242      4.00      12.0107
[...]
 flops   282 x   256 x   282         390713499648       0.0%    100.0%      0.0%
 flops   282 x   282 x   256         390713499648       0.0%    100.0%      0.0%
 flops     5 x    26 x    13         395937543300       0.0%    100.0%      0.0%
 flops    13 x    26 x     5         395937543300       0.0%    100.0%      0.0%
 flops   256 x   282 x   288         399026552832       0.0%    100.0%      0.0%
 flops   256 x   288 x   282         399026552832       0.0%    100.0%      0.0%
 flops   282 x   256 x   288         399026552832       0.0%    100.0%      0.0%
 flops   282 x   288 x   256         399026552832       0.0%    100.0%      0.0%
 flops   288 x   256 x   282         399026552832       0.0%    100.0%      0.0%
 flops   288 x   282 x   256         399026552832       0.0%    100.0%      0.0%
 flops    26 x     5 x   256         422198400000       0.0%    100.0%      0.0%
 flops     5 x    26 x   256         425594757120       0.0%    100.0%      0.0%
 flops    26 x     5 x   288         474973200000       0.0%    100.0%      0.0%
 flops     5 x    26 x   288         478794101760       0.0%    100.0%      0.0%
 flops     5 x     5 x   256         558552883200       0.0%    100.0%      0.0%
 flops     5 x     5 x   288         628371993600       0.0%    100.0%      0.0%
 flops    26 x    13 x   258         670446153000       0.0%    100.0%      0.0%
 flops    13 x    26 x   258         675630081984       0.0%    100.0%      0.0%
 flops   256 x   256 x   282         709380538368       0.0%    100.0%      0.0%
 flops   256 x   282 x   256         709380538368       0.0%    100.0%      0.0%
 flops   282 x   256 x   256         709380538368       0.0%    100.0%      0.0%
 flops    26 x    13 x   282         732813237000       0.0%    100.0%      0.0%
 flops    13 x    26 x   282         738479391936       0.0%    100.0%      0.0%
 flops     5 x    13 x   258         794261343720       0.0%    100.0%      0.0%
 flops   288 x   288 x   258         797261709312       0.0%    100.0%      0.0%
 flops   258 x   288 x   288         797261709312       0.0%    100.0%      0.0%
 flops   288 x   258 x   288         797261709312       0.0%    100.0%      0.0%
 flops    13 x     5 x   258         799962841860       0.0%    100.0%      0.0%
 flops     5 x    13 x   282         868146119880       0.0%    100.0%      0.0%
 flops    13 x     5 x   282         874377989940       0.0%    100.0%      0.0%
 flops   256 x   256 x   288        1076065468416       0.0%    100.0%      0.0%
 flops   256 x   288 x   256        1076065468416       0.0%    100.0%      0.0%
 flops   288 x   256 x   256        1076065468416       0.0%    100.0%      0.0%
 flops   288 x   288 x   256        1198597865472       0.0%    100.0%      0.0%
 flops   256 x   288 x   288        1198597865472       0.0%    100.0%      0.0%
 flops   288 x   256 x   288        1198597865472       0.0%    100.0%      0.0%
 flops   256 x   256 x   256        1444216307712       0.0%    100.0%      0.0%
 flops    13 x    26 x    13        1610888909760       0.0%    100.0%      0.0%
 flops    26 x    13 x   256        1995746688000       0.0%    100.0%      0.0%
 flops   256 x   258 x  1584        1996150210560       0.0%    100.0%      0.0%
 flops   258 x   256 x  1584        1996150210560       0.0%    100.0%      0.0%
 flops   256 x   258 x  1587        1999930798080       0.0%    100.0%      0.0%
 flops   258 x   256 x  1587        1999930798080       0.0%    100.0%      0.0%
 flops   288 x   288 x   288        2009161138176       0.0%    100.0%      0.0%
 flops    13 x    26 x   256        2011177918464       0.0%    100.0%      0.0%
 flops   258 x   258 x  1584        2011745134080       0.0%    100.0%      0.0%
 flops   258 x   258 x  1587        2015555257440       0.0%    100.0%      0.0%
 flops    26 x    13 x   288        2245215024000       0.0%    100.0%      0.0%
 flops    13 x    26 x   288        2262575158272       0.0%    100.0%      0.0%
 flops     5 x    13 x   256        2364312837120       0.0%    100.0%      0.0%
 flops    13 x     5 x   256        2381284738560       0.0%    100.0%      0.0%
 flops   282 x   282 x  1584        2403431585280       0.0%    100.0%      0.0%
 flops   282 x   282 x  1587        2407983539040       0.0%    100.0%      0.0%
 flops   282 x   288 x  1584        2454568427520       0.0%    100.0%      0.0%
 flops   288 x   282 x  1584        2454568427520       0.0%    100.0%      0.0%
 flops   282 x   288 x  1587        2459217231360       0.0%    100.0%      0.0%
 flops   288 x   282 x  1587        2459217231360       0.0%    100.0%      0.0%
 flops  1584 x   256 x   258        2612989919232       0.0%    100.0%      0.0%
 flops  1584 x   258 x   256        2612989919232       0.0%    100.0%      0.0%
 flops  1587 x   256 x   258        2617938763776       0.0%    100.0%      0.0%
 flops  1587 x   258 x   256        2617938763776       0.0%    100.0%      0.0%
 flops  1584 x   258 x   258        2633403902976       0.0%    100.0%      0.0%
 flops  1587 x   258 x   258        2638391410368       0.0%    100.0%      0.0%
 flops     5 x    13 x   288        2659851941760       0.0%    100.0%      0.0%
 flops    13 x     5 x   288        2678945330880       0.0%    100.0%      0.0%
 flops  1584 x   282 x   282        3146127215616       0.0%    100.0%      0.0%
 flops  1587 x   282 x   282        3152085789888       0.0%    100.0%      0.0%
 flops  1584 x   282 x   288        3213066092544       0.0%    100.0%      0.0%
 flops  1584 x   288 x   282        3213066092544       0.0%    100.0%      0.0%
 flops  1587 x   288 x   282        3219151444992       0.0%    100.0%      0.0%
 flops  1587 x   282 x   288        3219151444992       0.0%    100.0%      0.0%
 flops    13 x    13 x   258        3277366915836       0.0%    100.0%      0.0%
 flops    26 x    32 x    26        3418082270720       0.0%    100.0%      0.0%
 flops    13 x    13 x   282        3582238256844       0.0%    100.0%      0.0%
 flops   256 x   282 x  1584        4363677204480       0.0%    100.0%      0.0%
 flops   282 x   256 x  1584        4363677204480       0.0%    100.0%      0.0%
 flops   256 x   282 x  1587        4371941744640       0.0%    100.0%      0.0%
 flops   282 x   256 x  1587        4371941744640       0.0%    100.0%      0.0%
 flops   258 x   288 x  1584        4491337973760       0.0%    100.0%      0.0%
 flops   288 x   258 x  1584        4491337973760       0.0%    100.0%      0.0%
 flops   258 x   288 x  1587        4499844295680       0.0%    100.0%      0.0%
 flops   288 x   258 x  1587        4499844295680       0.0%    100.0%      0.0%
 flops     5 x    32 x    26        5710153321600       0.0%    100.0%      0.0%
 flops    26 x    32 x     5        5710153321600       0.0%    100.0%      0.0%
 flops  1584 x   256 x   282        5712117497856       0.0%    100.0%      0.0%
 flops  1584 x   282 x   256        5712117497856       0.0%    100.0%      0.0%
 flops  1587 x   256 x   282        5722935902208       0.0%    100.0%      0.0%
 flops  1587 x   282 x   256        5722935902208       0.0%    100.0%      0.0%
 flops  1584 x   258 x   288        5879227318272       0.0%    100.0%      0.0%
 flops  1584 x   288 x   258        5879227318272       0.0%    100.0%      0.0%
 flops  1587 x   288 x   258        5890362218496       0.0%    100.0%      0.0%
 flops  1587 x   258 x   288        5890362218496       0.0%    100.0%      0.0%
 flops     5 x    32 x     5        7418535577600       0.0%    100.0%      0.0%
 flops   256 x   288 x  1584        8913042800640       0.0%    100.0%      0.0%
 flops   288 x   256 x  1584        8913042800640       0.0%    100.0%      0.0%
 flops   256 x   288 x  1587        8929923563520       0.0%    100.0%      0.0%
 flops   288 x   256 x  1587        8929923563520       0.0%    100.0%      0.0%
 flops    13 x    13 x   256        9755882912256       0.0%    100.0%      0.0%
 flops   256 x   256 x  1584        9903380889600       0.0%    100.0%      0.0%
 flops   256 x   256 x  1587        9922137292800       0.0%    100.0%      0.0%
 flops    13 x    13 x   288       10975368276288       0.0%    100.0%      0.0%
 flops  1584 x   256 x   288       11667303825408       0.0%    100.0%      0.0%
 flops  1584 x   288 x   256       11667303825408       0.0%    100.0%      0.0%
 flops  1587 x   288 x   256       11689400991744       0.0%    100.0%      0.0%
 flops  1587 x   256 x   288       11689400991744       0.0%    100.0%      0.0%
 flops  1584 x   258 x  1584       12128495689728       0.0%    100.0%      0.0%
 flops  1584 x   258 x  1587       12151466325504       0.0%    100.0%      0.0%
 flops  1587 x   258 x  1584       12151466325504       0.0%    100.0%      0.0%
 flops  1587 x   258 x  1587       12174480466272       0.0%    100.0%      0.0%
 flops   288 x   288 x  1584       12533966438400       0.0%    100.0%      0.0%
 flops   288 x   288 x  1587       12557705011200       0.0%    100.0%      0.0%
 flops  1584 x   256 x   256       12963670917120       0.0%    100.0%      0.0%
 flops  1587 x   256 x   256       12988223324160       0.0%    100.0%      0.0%
 flops  1584 x   282 x  1584       13256727846912       0.0%    100.0%      0.0%
 flops  1584 x   282 x  1587       13281835286016       0.0%    100.0%      0.0%
 flops  1587 x   282 x  1584       13281835286016       0.0%    100.0%      0.0%
 flops  1587 x   282 x  1587       13306990277088       0.0%    100.0%      0.0%
 flops  1584 x   288 x   288       16407146004480       0.0%    100.0%      0.0%
 flops  1587 x   288 x   288       16438220144640       0.0%    100.0%      0.0%
 flops    13 x    32 x    26       26987890913152       0.0%    100.0%      0.0%
 flops    26 x    32 x    13       26987890913152       0.0%    100.0%      0.0%
 flops     5 x    32 x    13       31963089138240       0.0%    100.0%      0.0%
 flops    13 x    32 x     5       31963089138240       0.0%    100.0%      0.0%
 flops  1584 x   256 x  1584       36103429029888       0.0%    100.0%      0.0%
 flops  1584 x   256 x  1587       36171806736384       0.0%    100.0%      0.0%
 flops  1587 x   256 x  1584       36171806736384       0.0%    100.0%      0.0%
 flops  1587 x   256 x  1587       36240313946112       0.0%    100.0%      0.0%
 flops  1584 x   288 x  1584       40616357658624       0.0%    100.0%      0.0%
 flops  1587 x   288 x  1584       40693282578432       0.0%    100.0%      0.0%
 flops  1584 x   288 x  1587       40693282578432       0.0%    100.0%      0.0%
 flops  1587 x   288 x  1587       40770353189376       0.0%    100.0%      0.0%
 flops    13 x    32 x    13      130043201773056       0.0%    100.0%      0.0%
 flops inhomo. stacks                           0       0.0%      0.0%      0.0%
 flops total                         1.094037E+15       0.0%    100.0%      0.0%
 flops max/rank                     73.153430E+12       0.0%    100.0%      0.0%
 matmuls inhomo. stacks                         0       0.0%      0.0%      0.0%
 matmuls total                        37953869248       0.0%    100.0%      0.0%
 number of processed stacks              48251277       0.0%    100.0%      0.0%
 average stack size                                     0.0     786.6       0.0
 marketing flops                     2.042917E+15
 -------------------------------------------------------------------------------
 # multiplications                          51542
 max memory usage/rank               2.314793E+09
 # max total images/rank                        1
 # max 3D layers                                1
 # MPI messages exchanged                 4948032
 MPI messages size (bytes):
  total size                        17.606073E+12
  min size                           0.000000E+00
  max size                          20.148552E+06
  average size                       3.558197E+06
 MPI breakdown and total messages size (bytes):
             size <=      128               57288                        0
       128 < size <=     8192                   0                        0
      8192 < size <=    32768                   0                        0
     32768 < size <=   131072                5208                360851904
    131072 < size <=  4194304             4168368           10053168158880
   4194304 < size <= 16777216              492336            3025605602160
  16777216 < size                          224832            4521479889024
 -------------------------------------------------------------------------------
 -                                                                             -
 -                      DBCSR MESSAGE PASSING PERFORMANCE                      -
 -                                                                             -
 -------------------------------------------------------------------------------
 ROUTINE             CALLS      AVE VOLUME [Bytes]
 MP_Group             8574
 MP_Bcast              188                     12.
 MP_Allreduce       252959                     26.
 MP_Alltoall        281511                 915025.
 MP_Wait           2474016
 MP_ISend           822936                1386950.
 MP_IRecv           822936                1374484.
 MP_Memory         1881054
 -------------------------------------------------------------------------------

 MEMORY| Estimated peak process memory [MiB]                                2208

 -------------------------------------------------------------------------------
 ----                             MULTIGRID INFO                            ----
 -------------------------------------------------------------------------------
 count for grid        1:        1657680          cutoff [a.u.]          180.00
 count for grid        2:         393520          cutoff [a.u.]           60.00
 count for grid        3:         224320          cutoff [a.u.]           20.00
 count for grid        4:          22240          cutoff [a.u.]            6.67
 count for grid        5:            640          cutoff [a.u.]            2.22
 total gridlevel count  :        2298400

 -------------------------------------------------------------------------------
 -                                                                             -
 -                         MESSAGE PASSING PERFORMANCE                         -
 -                                                                             -
 -------------------------------------------------------------------------------

 ROUTINE             CALLS      AVE VOLUME [Bytes]
 MP_Group                6
 MP_Bcast             1235                6812894.
 MP_Allreduce           91                  18149.
 MP_Sync                 5
 -------------------------------------------------------------------------------


 -------------------------------------------------------------------------------
 -                                                                             -
 -                           R E F E R E N C E S                               -
 -                                                                             -
 -------------------------------------------------------------------------------
 
 CP2K version 7.1, the CP2K developers group (2019).
 CP2K is freely available from https://www.cp2k.org/ .

 Schuett, Ole; Messmer, Peter; Hutter, Juerg; VandeVondele, Joost. 
 Electronic Structure Calculations on Graphics Processing Units, John
 Wiley & Sons, Ltd, 173-190 (2016). 
 GPU-Accelerated Sparse Matrix-Matrix Multiplication for
 Linear Scaling Density Functional Theory.
 https://dx.doi.org/10.1002/9781118670712.ch8

 Borstnik, U; VandeVondele, J; Weber, V; Hutter, J. 
 PARALLEL COMPUTING, 40 (5-6), 47-58 (2014). 
 Sparse matrix multiplication: The distributed block-compressed sparse
 row library.
 https://dx.doi.org/10.1016/j.parco.2014.03.012

 Hutter, J; Iannuzzi, M; Schiffmann, F; VandeVondele, J. 
 WIREs Comput Mol Sci., 4 (1), 15-25 (2014). 
 CP2K: atomistic simulations of condensed matter systems.
 https://dx.doi.org/10.1002/wcms.1159

 Grimme, S; Ehrlich, S; Goerigk, L. 
 JOURNAL OF COMPUTATIONAL CHEMISTRY, 32, 1456 (2011). 
 Effect of the damping function in dispersion corrected density functional theory.
 https://dx.doi.org/10.1002/jcc.21759

 Grimme, S; Antony, J; Ehrlich, S; Krieg, H. 
 JOURNAL OF CHEMICAL PHYSICS, 132 (15), 154104 (2010). 
 A consistent and accurate ab initio parametrization of density
 functional dispersion correction (DFT-D) for the 94 elements H-Pu.
 https://dx.doi.org/10.1063/1.3382344

 VandeVondele, J; Hutter, J. 
 JOURNAL OF CHEMICAL PHYSICS, 127 (11), 114105 (2007). 
 Gaussian basis sets for accurate calculations on molecular systems in
 gas and condensed phases.
 https://dx.doi.org/10.1063/1.2770708

 Krack, M. 
 THEORETICAL CHEMISTRY ACCOUNTS, 114 (1-3), 145-152 (2005). 
 Pseudopotentials for H to Kr optimized for gradient-corrected
 exchange-correlation functionals.
 https://dx.doi.org/10.1007/s00214-005-0655-y

 VandeVondele, J; Krack, M; Mohamed, F; Parrinello, M; Chassaing, T;
 Hutter, J. COMPUTER PHYSICS COMMUNICATIONS, 167 (2), 103-128 (2005). 
 QUICKSTEP: Fast and accurate density functional calculations using a
 mixed Gaussian and plane waves approach.
 https://dx.doi.org/10.1016/j.cpc.2004.12.014

 Frigo, M; Johnson, SG. 
 PROCEEDINGS OF THE IEEE, 93 (2), 216-231 (2005). 
 The design and implementation of FFTW3.
 https://dx.doi.org/10.1109/JPROC.2004.840301

 Kolafa, J. 
 JOURNAL OF COMPUTATIONAL CHEMISTRY, 25 (3), 335-342 (2004). 
 Time-reversible always stable predictor-corrector method for molecular dynamics of polarizable molecules.
 https://dx.doi.org/10.1002/jcc.10385

 VandeVondele, J; Hutter, J. 
 JOURNAL OF CHEMICAL PHYSICS, 118 (10), 4365-4369 (2003). 
 An efficient orbital transformation method for electronic structure
 calculations.
 https://dx.doi.org/10.1063/1.1543154

 Hartwigsen, C; Goedecker, S; Hutter, J. 
 PHYSICAL REVIEW B, 58 (7), 3641-3662 (1998). 
 Relativistic separable dual-space Gaussian pseudopotentials from H to Rn.
 https://dx.doi.org/10.1103/PhysRevB.58.3641

 Lippert, G; Hutter, J; Parrinello, M. 
 MOLECULAR PHYSICS, 92 (3), 477-487 (1997). 
 A hybrid Gaussian and plane wave density functional scheme.
 https://dx.doi.org/10.1080/002689797170220

 Perdew, JP; Burke, K; Ernzerhof, M. 
 PHYSICAL REVIEW LETTERS, 77 (18), 3865-3868 (1996). 
 Generalized gradient approximation made simple.
 https://dx.doi.org/10.1103/PhysRevLett.77.3865

 Goedecker, S; Teter, M; Hutter, J. 
 PHYSICAL REVIEW B, 54 (3), 1703-1710 (1996). 
 Separable dual-space Gaussian pseudopotentials.
 https://dx.doi.org/10.1103/PhysRevB.54.1703


 -------------------------------------------------------------------------------
 -                                                                             -
 -                                T I M I N G                                  -
 -                                                                             -
 -------------------------------------------------------------------------------
 SUBROUTINE                       CALLS  ASD         SELF TIME        TOTAL TIME
                                MAXIMUM       AVERAGE  MAXIMUM  AVERAGE  MAXIMUM
 CP2K                                 1  1.0     0.01     0.01 83262.97 83263.21
 vb_anal                              1  2.0 83258.50 83258.73 83260.80 83261.04
 -------------------------------------------------------------------------------

 The number of warnings for this run is : 0
 
 -------------------------------------------------------------------------------
  **** **** ******  **  PROGRAM ENDED AT                 2021-11-28 20:46:46.339
 ***** ** ***  *** **   PROGRAM RAN ON             node1901.palmetto.clemson.edu
 **    ****   ******    PROGRAM RAN BY                                   svicchi
 ***** **    ** ** **   PROGRAM PROCESS ID                                 22585
  **** **  *******  **  PROGRAM STOPPED IN  /scratch2/svicchi/CP2K-4064482.pbs02
