 DBCSR| CPU Multiplication driver                                           XSMM
 DBCSR| Multrec recursion limit                                              512
 DBCSR| Multiplication stack size                                           1000
 DBCSR| Maximum elements for images                                    UNLIMITED
 DBCSR| Multiplicative factor virtual images                                   1
 DBCSR| Use multiplication densification                                       T
 DBCSR| Multiplication size stacks                                             3
 DBCSR| Number of 3D layers                                               SINGLE
 DBCSR| Use MPI memory allocation                                              T
 DBCSR| Use RMA algorithm                                                      F
 DBCSR| Use Communication thread                                               T
 DBCSR| Communication thread load                                             87


  **** **** ******  **  PROGRAM STARTED AT               2021-11-28 04:27:47.698
 ***** ** ***  *** **   PROGRAM STARTED ON         node1943.palmetto.clemson.edu
 **    ****   ******    PROGRAM STARTED BY                               svicchi
 ***** **    ** ** **   PROGRAM PROCESS ID                                163291
  **** **  *******  **  PROGRAM STARTED IN  /scratch2/svicchi/CP2K-4064487.pbs02

 CP2K| version string:                                          CP2K version 7.1
 CP2K| source code revision number:                                  git:e635599
 CP2K| cp2kflags: libint fftw3 libxc parallel mpi3 scalapack xsmm               
 CP2K| is freely available from                            https://www.cp2k.org/
 CP2K| Program compiled at                          Wed Aug 12 10:01:37 EDT 2020
 CP2K| Program compiled on                           util02.palmetto.clemson.edu
 CP2K| Program compiled for                          linux-centos8-ivybridge-gcc
 CP2K| Data directory path    /software/spackages/linux-centos8-ivybridge/gcc-8.
 CP2K| Input file name                127_Zr18_C264_Ni4_O106_H194_UKS-multi5.inp

 GLOBAL| Force Environment number                                              1
 GLOBAL| Basis set file name                                          BASIS_file
 GLOBAL| Potential file name                                     POTENTIALS_file
 GLOBAL| MM Potential file name                                     MM_POTENTIAL
 GLOBAL| Coordinate file name           127_Zr18_C264_Ni4_O106_H194_UKS-multi5.x
 GLOBAL| Method name                                                        CP2K
 GLOBAL| Project name                   info-296-127_Zr18_C264_Ni4_O106_H194_UKS
 GLOBAL| Preferred FFT library                                             FFTW3
 GLOBAL| Preferred diagonalization lib.                                       SL
 GLOBAL| Run type                                           VIBRATIONAL_ANALYSIS
 GLOBAL| All-to-all communication in single precision                          F
 GLOBAL| FFTs using library dependent lengths                                  F
 GLOBAL| Global print level                                               MEDIUM
 GLOBAL| MPI I/O enabled                                                       T
 GLOBAL| Total number of message passing processes                            16
 GLOBAL| Number of threads for this process                                    1
 GLOBAL| This output is from process                                           0
 GLOBAL| CPU model name                 Intel(R) Xeon(R) CPU E5-2665 0 @ 2.40GHz
 GLOBAL| CPUID                                                              1001

 MEMORY| system memory details [Kb]
 MEMORY|                        rank 0           min           max       average
 MEMORY| MemTotal            131713748     131713748     131713748     131713748
 MEMORY| MemFree             122971644     122941740     122971644     122959341
 MEMORY| Buffers                  6284          6284          6284          6284
 MEMORY| Cached                4820648       4820648       4820648       4820648
 MEMORY| Slab                   915796        915796        915796        915796
 MEMORY| SReclaimable           478968        478968        478968        478968
 MEMORY| MemLikelyFree       128277544     128247640     128277544     128265241


 *** Fundamental physical constants (SI units) ***

 *** Literature: B. J. Mohr and B. N. Taylor,
 ***             CODATA recommended values of the fundamental physical
 ***             constants: 2006, Web Version 5.1
 ***             http://physics.nist.gov/constants

 Speed of light in vacuum [m/s]                             2.99792458000000E+08
 Magnetic constant or permeability of vacuum [N/A**2]       1.25663706143592E-06
 Electric constant or permittivity of vacuum [F/m]          8.85418781762039E-12
 Planck constant (h) [J*s]                                  6.62606896000000E-34
 Planck constant (h-bar) [J*s]                              1.05457162825177E-34
 Elementary charge [C]                                      1.60217648700000E-19
 Electron mass [kg]                                         9.10938215000000E-31
 Electron g factor [ ]                                     -2.00231930436220E+00
 Proton mass [kg]                                           1.67262163700000E-27
 Fine-structure constant                                    7.29735253760000E-03
 Rydberg constant [1/m]                                     1.09737315685270E+07
 Avogadro constant [1/mol]                                  6.02214179000000E+23
 Boltzmann constant [J/K]                                   1.38065040000000E-23
 Atomic mass unit [kg]                                      1.66053878200000E-27
 Bohr radius [m]                                            5.29177208590000E-11

 *** Conversion factors ***

 [u] -> [a.u.]                                              1.82288848426455E+03
 [Angstrom] -> [Bohr] = [a.u.]                              1.88972613288564E+00
 [a.u.] = [Bohr] -> [Angstrom]                              5.29177208590000E-01
 [a.u.] -> [s]                                              2.41888432650478E-17
 [a.u.] -> [fs]                                             2.41888432650478E-02
 [a.u.] -> [J]                                              4.35974393937059E-18
 [a.u.] -> [N]                                              8.23872205491840E-08
 [a.u.] -> [K]                                              3.15774647902944E+05
 [a.u.] -> [kJ/mol]                                         2.62549961709828E+03
 [a.u.] -> [kcal/mol]                                       6.27509468713739E+02
 [a.u.] -> [Pa]                                             2.94210107994716E+13
 [a.u.] -> [bar]                                            2.94210107994716E+08
 [a.u.] -> [atm]                                            2.90362800883016E+08
 [a.u.] -> [eV]                                             2.72113838565563E+01
 [a.u.] -> [Hz]                                             6.57968392072181E+15
 [a.u.] -> [1/cm] (wave numbers)                            2.19474631370540E+05
 [a.u./Bohr**2] -> [1/cm]                                   5.14048714338585E+03
 

 CELL_TOP| Volume [angstrom^3]:                                        22838.217
 CELL_TOP| Vector a [angstrom    40.611     0.000     0.000    |a| =      40.611
 CELL_TOP| Vector b [angstrom    20.305    35.170     0.000    |b| =      40.611
 CELL_TOP| Vector c [angstrom     0.000     0.000    15.990    |c| =      15.990
 CELL_TOP| Angle (b,c), alpha [degree]:                                   90.000
 CELL_TOP| Angle (a,c), beta  [degree]:                                   90.000
 CELL_TOP| Angle (a,b), gamma [degree]:                                   60.000
 CELL_TOP| Requested initial symmetry:                       MONOCLINIC_GAMMA_AB
 CELL_TOP| Numerically orthorhombic:                                          NO

 CELL| Volume [angstrom^3]:                                            22838.217
 CELL| Vector a [angstrom]:      40.611     0.000     0.000    |a| =      40.611
 CELL| Vector b [angstrom]:      20.305    35.170     0.000    |b| =      40.611
 CELL| Vector c [angstrom]:       0.000     0.000    15.990    |c| =      15.990
 CELL| Angle (b,c), alpha [degree]:                                       90.000
 CELL| Angle (a,c), beta  [degree]:                                       90.000
 CELL| Angle (a,b), gamma [degree]:                                       60.000
 CELL| Requested initial symmetry:                           MONOCLINIC_GAMMA_AB
 CELL| Numerically orthorhombic:                                              NO

 CELL_REF| Volume [angstrom^3]:                                        22838.217
 CELL_REF| Vector a [angstrom    40.611     0.000     0.000    |a| =      40.611
 CELL_REF| Vector b [angstrom    20.305    35.170     0.000    |b| =      40.611
 CELL_REF| Vector c [angstrom     0.000     0.000    15.990    |c| =      15.990
 CELL_REF| Angle (b,c), alpha [degree]:                                   90.000
 CELL_REF| Angle (a,c), beta  [degree]:                                   90.000
 CELL_REF| Angle (a,b), gamma [degree]:                                   60.000
 CELL_REF| Requested initial symmetry:                       MONOCLINIC_GAMMA_AB
 CELL_REF| Numerically orthorhombic:                                          NO

 *******************************************************************************
 *******************************************************************************
 **                                                                           **
 **     #####                         ##              ##                      **
 **    ##   ##            ##          ##              ##                      **
 **   ##     ##                       ##            ######                    **
 **   ##     ##  ##   ##  ##   #####  ##  ##   ####   ##    #####    #####    **
 **   ##     ##  ##   ##  ##  ##      ## ##   ##      ##   ##   ##  ##   ##   **
 **   ##  ## ##  ##   ##  ##  ##      ####     ###    ##   ######   ######    **
 **    ##  ###   ##   ##  ##  ##      ## ##      ##   ##   ##       ##        **
 **     #######   #####   ##   #####  ##  ##  ####    ##    #####   ##        **
 **           ##                                                    ##        **
 **                                                                           **
 **                                                ... make the atoms dance   **
 **                                                                           **
 **            Copyright (C) by CP2K developers group (2000 - 2019)           **
 **                                                                           **
 *******************************************************************************

 DFT| Spin unrestricted (spin-polarized) Kohn-Sham calculation               UKS
 DFT| Multiplicity                                                             5
 DFT| Number of spin states                                                    2
 DFT| Charge                                                                   0
 DFT| Self-interaction correction (SIC)                                       NO
 DFT| Cutoffs: density                                              1.000000E-10
 DFT|          gradient                                             1.000000E-10
 DFT|          tau                                                  1.000000E-10
 DFT|          cutoff_smoothing_range                               0.000000E+00
 DFT| XC density smoothing                                                  NONE
 DFT| XC derivatives                                                          PW
 FUNCTIONAL| ROUTINE=NEW
 FUNCTIONAL| PBE:
 FUNCTIONAL| J.P.Perdew, K.Burke, M.Ernzerhof, Phys. Rev. Letter, vol. 77, n 18,
 FUNCTIONAL|  pp. 3865-3868, (1996){spin polarized}                             
 vdW POTENTIAL|                                                   Pair Potential
 vdW POTENTIAL|          DFT-D3 (Version 3.1)
 vdW POTENTIAL|          Potential Form: S. Grimme et al, JCP 132: 154104 (2010)
 vdW POTENTIAL|          BJ Damping: S. Grimme et al, JCC 32: 1456 (2011)
 vdW POTENTIAL|          Cutoff Radius [Bohr]:                             20.00
 vdW POTENTIAL|          s6 Scaling Factor:                               1.0000
 vdW POTENTIAL|          a1 Damping Factor:                               0.4289
 vdW POTENTIAL|          s8 Scaling Factor:                               0.7875
 vdW POTENTIAL|          a2 Damping Factor:                               4.4407
 vdW POTENTIAL|          Cutoff for CN calculation:                   0.1000E-05

 QS| Method:                                                                 GPW
 QS| Density plane wave grid type                        NON-SPHERICAL FULLSPACE
 QS| Number of grid levels:                                                    5
 QS| Density cutoff [a.u.]:                                                180.0
 QS| Multi grid cutoff [a.u.]: 1) grid level                               180.0
 QS|                           2) grid level                                60.0
 QS|                           3) grid level                                20.0
 QS|                           4) grid level                                 6.7
 QS|                           5) grid level                                 2.2
 QS| Grid level progression factor:                                          3.0
 QS| Relative density cutoff [a.u.]:                                        40.0
 QS| Consistent realspace mapping and integration 
 QS| Interaction thresholds: eps_pgf_orb:                                1.0E-05
 QS|                         eps_filter_matrix:                          0.0E+00
 QS|                         eps_core_charge:                            1.0E-12
 QS|                         eps_rho_gspace:                             1.0E-10
 QS|                         eps_rho_rspace:                             1.0E-10
 QS|                         eps_gvg_rspace:                             1.0E-05
 QS|                         eps_ppl:                                    1.0E-02
 QS|                         eps_ppnl:                                   1.0E-07


 ATOMIC KIND INFORMATION

  1. Atomic kind: C                                     Number of atoms:     264

     Orbital Basis Set                                     DZVP-MOLOPT-SR-GTH-q4

       Number of orbital shell sets:                                           1
       Number of orbital shells:                                               5
       Number of primitive Cartesian functions:                                5
       Number of Cartesian basis functions:                                   14
       Number of spherical basis functions:                                   13
       Norm type:                                                              2

       Normalised Cartesian orbitals:

                        Set   Shell   Orbital            Exponent    Coefficient

                          1       1    2s                5.605331       0.322515
                                                         2.113016       0.213043
                                                         0.769911      -0.209686
                                                         0.348157      -0.219794
                                                         0.128212      -0.022789

                          1       2    3s                5.605331       0.552234
                                                         2.113016       0.082072
                                                         0.769911       0.007843
                                                         0.348157       0.136893
                                                         0.128212       0.074283

                          1       3    3px               5.605331      -0.703879
                                                         2.113016      -0.642521
                                                         0.769911      -0.374851
                                                         0.348157      -0.139743
                                                         0.128212      -0.027849
                          1       3    3py               5.605331      -0.703879
                                                         2.113016      -0.642521
                                                         0.769911      -0.374851
                                                         0.348157      -0.139743
                                                         0.128212      -0.027849
                          1       3    3pz               5.605331      -0.703879
                                                         2.113016      -0.642521
                                                         0.769911      -0.374851
                                                         0.348157      -0.139743
                                                         0.128212      -0.027849

                          1       4    4px               5.605331      -0.480376
                                                         2.113016      -0.552894
                                                         0.769911      -0.316145
                                                         0.348157       0.210505
                                                         0.128212       0.076095
                          1       4    4py               5.605331      -0.480376
                                                         2.113016      -0.552894
                                                         0.769911      -0.316145
                                                         0.348157       0.210505
                                                         0.128212       0.076095
                          1       4    4pz               5.605331      -0.480376
                                                         2.113016      -0.552894
                                                         0.769911      -0.316145
                                                         0.348157       0.210505
                                                         0.128212       0.076095

                          1       5    4dx2              5.605331       0.640026
                                                         2.113016       0.274300
                                                         0.769911       0.446711
                                                         0.348157       0.028674
                                                         0.128212       0.029790
                          1       5    4dxy              5.605331       1.108557
                                                         2.113016       0.475102
                                                         0.769911       0.773726
                                                         0.348157       0.049666
                                                         0.128212       0.051599
                          1       5    4dxz              5.605331       1.108557
                                                         2.113016       0.475102
                                                         0.769911       0.773726
                                                         0.348157       0.049666
                                                         0.128212       0.051599
                          1       5    4dy2              5.605331       0.640026
                                                         2.113016       0.274300
                                                         0.769911       0.446711
                                                         0.348157       0.028674
                                                         0.128212       0.029790
                          1       5    4dyz              5.605331       1.108557
                                                         2.113016       0.475102
                                                         0.769911       0.773726
                                                         0.348157       0.049666
                                                         0.128212       0.051599
                          1       5    4dz2              5.605331       0.640026
                                                         2.113016       0.274300
                                                         0.769911       0.446711
                                                         0.348157       0.028674
                                                         0.128212       0.029790

     GTH Potential information for                                    GTH-PBE-q4

       Description:                       Goedecker-Teter-Hutter pseudopotential
                                           Goedecker et al., PRB 54, 1703 (1996)
                                          Hartwigsen et al., PRB 58, 3641 (1998)
                                                      Krack, TCA 114, 145 (2005)

       Gaussian exponent of the core charge distribution:               4.364419
       Electronic configuration (s p d ...):                               2   2

       Parameters of the local part of the GTH pseudopotential:

                          rloc        C1          C2          C3          C4
                        0.338471   -8.803674    1.339211

       Parameters of the non-local part of the GTH pseudopotential:

                   l      r(l)      h(i,j,l)

                   0    0.302576    9.622487
                   1    0.291507

  2. Atomic kind: Zr                                    Number of atoms:      18

     Orbital Basis Set                                    DZVP-MOLOPT-SR-GTH-q12

       Number of orbital shell sets:                                           1
       Number of orbital shells:                                               8
       Number of primitive Cartesian functions:                                7
       Number of Cartesian basis functions:                                   31
       Number of spherical basis functions:                                   26
       Norm type:                                                              2

       Normalised Cartesian orbitals:

                        Set   Shell   Orbital            Exponent    Coefficient

                          1       1    2s                7.568386      -0.292925
                                                         2.940870       1.053802
                                                         1.478550      -0.194175
                                                         0.699653      -0.477593
                                                         0.314575      -0.092850
                                                         0.129869       0.000474
                                                         0.046851      -0.000485

                          1       2    3s                7.568386      -0.107602
                                                         2.940870       0.453694
                                                         1.478550      -0.133469
                                                         0.699653      -0.242646
                                                         0.314575      -0.112324
                                                         0.129869       0.079936
                                                         0.046851       0.057275

                          1       3    4s                7.568386      -0.039443
                                                         2.940870      -0.239516
                                                         1.478550       0.462939
                                                         0.699653       0.054202
                                                         0.314575       0.378792
                                                         0.129869      -0.467495
                                                         0.046851       0.135277

                          1       4    3px               7.568386      -0.367032
                                                         2.940870       1.199938
                                                         1.478550      -0.729727
                                                         0.699653      -0.527717
                                                         0.314575      -0.102074
                                                         0.129869      -0.002163
                                                         0.046851      -0.000016
                          1       4    3py               7.568386      -0.367032
                                                         2.940870       1.199938
                                                         1.478550      -0.729727
                                                         0.699653      -0.527717
                                                         0.314575      -0.102074
                                                         0.129869      -0.002163
                                                         0.046851      -0.000016
                          1       4    3pz               7.568386      -0.367032
                                                         2.940870       1.199938
                                                         1.478550      -0.729727
                                                         0.699653      -0.527717
                                                         0.314575      -0.102074
                                                         0.129869      -0.002163
                                                         0.046851      -0.000016

                          1       5    4px               7.568386      -0.041149
                                                         2.940870       0.296409
                                                         1.478550      -0.285807
                                                         0.699653      -0.254468
                                                         0.314575       0.008755
                                                         0.129869       0.053085
                                                         0.046851       0.019526
                          1       5    4py               7.568386      -0.041149
                                                         2.940870       0.296409
                                                         1.478550      -0.285807
                                                         0.699653      -0.254468
                                                         0.314575       0.008755
                                                         0.129869       0.053085
                                                         0.046851       0.019526
                          1       5    4pz               7.568386      -0.041149
                                                         2.940870       0.296409
                                                         1.478550      -0.285807
                                                         0.699653      -0.254468
                                                         0.314575       0.008755
                                                         0.129869       0.053085
                                                         0.046851       0.019526

                          1       6    4dx2              7.568386      -0.104612
                                                         2.940870      -0.141339
                                                         1.478550       0.540679
                                                         0.699653       0.284252
                                                         0.314575       0.094561
                                                         0.129869       0.012195
                                                         0.046851       0.000412
                          1       6    4dxy              7.568386      -0.181193
                                                         2.940870      -0.244806
                                                         1.478550       0.936483
                                                         0.699653       0.492339
                                                         0.314575       0.163785
                                                         0.129869       0.021122
                                                         0.046851       0.000713
                          1       6    4dxz              7.568386      -0.181193
                                                         2.940870      -0.244806
                                                         1.478550       0.936483
                                                         0.699653       0.492339
                                                         0.314575       0.163785
                                                         0.129869       0.021122
                                                         0.046851       0.000713
                          1       6    4dy2              7.568386      -0.104612
                                                         2.940870      -0.141339
                                                         1.478550       0.540679
                                                         0.699653       0.284252
                                                         0.314575       0.094561
                                                         0.129869       0.012195
                                                         0.046851       0.000412
                          1       6    4dyz              7.568386      -0.181193
                                                         2.940870      -0.244806
                                                         1.478550       0.936483
                                                         0.699653       0.492339
                                                         0.314575       0.163785
                                                         0.129869       0.021122
                                                         0.046851       0.000713
                          1       6    4dz2              7.568386      -0.104612
                                                         2.940870      -0.141339
                                                         1.478550       0.540679
                                                         0.699653       0.284252
                                                         0.314575       0.094561
                                                         0.129869       0.012195
                                                         0.046851       0.000412

                          1       7    5dx2              7.568386      -0.107600
                                                         2.940870       0.230973
                                                         1.478550      -0.200541
                                                         0.699653      -0.193347
                                                         0.314575       0.007888
                                                         0.129869       0.006706
                                                         0.046851       0.006900
                          1       7    5dxy              7.568386      -0.186369
                                                         2.940870       0.400056
                                                         1.478550      -0.347346
                                                         0.699653      -0.334887
                                                         0.314575       0.013663
                                                         0.129869       0.011615
                                                         0.046851       0.011951
                          1       7    5dxz              7.568386      -0.186369
                                                         2.940870       0.400056
                                                         1.478550      -0.347346
                                                         0.699653      -0.334887
                                                         0.314575       0.013663
                                                         0.129869       0.011615
                                                         0.046851       0.011951
                          1       7    5dy2              7.568386      -0.107600
                                                         2.940870       0.230973
                                                         1.478550      -0.200541
                                                         0.699653      -0.193347
                                                         0.314575       0.007888
                                                         0.129869       0.006706
                                                         0.046851       0.006900
                          1       7    5dyz              7.568386      -0.186369
                                                         2.940870       0.400056
                                                         1.478550      -0.347346
                                                         0.699653      -0.334887
                                                         0.314575       0.013663
                                                         0.129869       0.011615
                                                         0.046851       0.011951
                          1       7    5dz2              7.568386      -0.107600
                                                         2.940870       0.230973
                                                         1.478550      -0.200541
                                                         0.699653      -0.193347
                                                         0.314575       0.007888
                                                         0.129869       0.006706
                                                         0.046851       0.006900

                          1       8    5fx3              7.568386       0.371480
                                                         2.940870      -0.155968
                                                         1.478550      -0.211323
                                                         0.699653      -0.255968
                                                         0.314575      -0.046738
                                                         0.129869      -0.005674
                                                         0.046851       0.000171
                          1       8    5fx2y             7.568386       0.830655
                                                         2.940870      -0.348756
                                                         1.478550      -0.472533
                                                         0.699653      -0.572361
                                                         0.314575      -0.104510
                                                         0.129869      -0.012687
                                                         0.046851       0.000382
                          1       8    5fx2z             7.568386       0.830655
                                                         2.940870      -0.348756
                                                         1.478550      -0.472533
                                                         0.699653      -0.572361
                                                         0.314575      -0.104510
                                                         0.129869      -0.012687
                                                         0.046851       0.000382
                          1       8    5fxy2             7.568386       0.830655
                                                         2.940870      -0.348756
                                                         1.478550      -0.472533
                                                         0.699653      -0.572361
                                                         0.314575      -0.104510
                                                         0.129869      -0.012687
                                                         0.046851       0.000382
                          1       8    5fxyz             7.568386       1.438737
                                                         2.940870      -0.604063
                                                         1.478550      -0.818452
                                                         0.699653      -0.991359
                                                         0.314575      -0.181017
                                                         0.129869      -0.021975
                                                         0.046851       0.000662
                          1       8    5fxz2             7.568386       0.830655
                                                         2.940870      -0.348756
                                                         1.478550      -0.472533
                                                         0.699653      -0.572361
                                                         0.314575      -0.104510
                                                         0.129869      -0.012687
                                                         0.046851       0.000382
                          1       8    5fy3              7.568386       0.371480
                                                         2.940870      -0.155968
                                                         1.478550      -0.211323
                                                         0.699653      -0.255968
                                                         0.314575      -0.046738
                                                         0.129869      -0.005674
                                                         0.046851       0.000171
                          1       8    5fy2z             7.568386       0.830655
                                                         2.940870      -0.348756
                                                         1.478550      -0.472533
                                                         0.699653      -0.572361
                                                         0.314575      -0.104510
                                                         0.129869      -0.012687
                                                         0.046851       0.000382
                          1       8    5fyz2             7.568386       0.830655
                                                         2.940870      -0.348756
                                                         1.478550      -0.472533
                                                         0.699653      -0.572361
                                                         0.314575      -0.104510
                                                         0.129869      -0.012687
                                                         0.046851       0.000382
                          1       8    5fz3              7.568386       0.371480
                                                         2.940870      -0.155968
                                                         1.478550      -0.211323
                                                         0.699653      -0.255968
                                                         0.314575      -0.046738
                                                         0.129869      -0.005674
                                                         0.046851       0.000171

     GTH Potential information for                                   GTH-PBE-q12

       Description:                       Goedecker-Teter-Hutter pseudopotential
                                           Goedecker et al., PRB 54, 1703 (1996)
                                          Hartwigsen et al., PRB 58, 3641 (1998)
                                                      Krack, TCA 114, 145 (2005)

       Gaussian exponent of the core charge distribution:               2.263468
       Electronic configuration (s p d ...):                           4   6   2

       Parameters of the local part of the GTH pseudopotential:

                          rloc        C1          C2          C3          C4
                        0.470000    7.796057   -1.893210

       Parameters of the non-local part of the GTH pseudopotential:

                   l      r(l)      h(i,j,l)

                   0    0.259829   23.380874   -8.571939
                                   -8.571939   11.066326
                   1    0.288969    8.592766   -5.377358
                                   -5.377358    6.362576
                   2    0.581245    0.027811    0.276862
                                    0.276862   -0.313932

  3. Atomic kind: H                                     Number of atoms:     194

     Orbital Basis Set                                     DZVP-MOLOPT-SR-GTH-q1

       Number of orbital shell sets:                                           1
       Number of orbital shells:                                               3
       Number of primitive Cartesian functions:                                5
       Number of Cartesian basis functions:                                    5
       Number of spherical basis functions:                                    5
       Norm type:                                                              2

       Normalised Cartesian orbitals:

                        Set   Shell   Orbital            Exponent    Coefficient

                          1       1    2s               10.068468      -0.133023
                                                         2.680223      -0.177618
                                                         0.791502      -0.258419
                                                         0.239116      -0.107525
                                                         0.082193      -0.014019

                          1       2    3s               10.068468       0.344673
                                                         2.680223       1.819821
                                                         0.791502      -0.999069
                                                         0.239116       0.017430
                                                         0.082193       0.082660

                          1       3    3px              10.068468       0.155326
                                                         2.680223       0.367157
                                                         0.791502       0.311480
                                                         0.239116       0.080105
                                                         0.082193       0.033440
                          1       3    3py              10.068468       0.155326
                                                         2.680223       0.367157
                                                         0.791502       0.311480
                                                         0.239116       0.080105
                                                         0.082193       0.033440
                          1       3    3pz              10.068468       0.155326
                                                         2.680223       0.367157
                                                         0.791502       0.311480
                                                         0.239116       0.080105
                                                         0.082193       0.033440

     GTH Potential information for                                    GTH-PBE-q1

       Description:                       Goedecker-Teter-Hutter pseudopotential
                                           Goedecker et al., PRB 54, 1703 (1996)
                                          Hartwigsen et al., PRB 58, 3641 (1998)
                                                      Krack, TCA 114, 145 (2005)

       Gaussian exponent of the core charge distribution:              12.500000
       Electronic configuration (s p d ...):                                   1

       Parameters of the local part of the GTH pseudopotential:

                          rloc        C1          C2          C3          C4
                        0.200000   -4.178900    0.724463

  4. Atomic kind: O                                     Number of atoms:     106

     Orbital Basis Set                                     DZVP-MOLOPT-SR-GTH-q6

       Number of orbital shell sets:                                           1
       Number of orbital shells:                                               5
       Number of primitive Cartesian functions:                                5
       Number of Cartesian basis functions:                                   14
       Number of spherical basis functions:                                   13
       Norm type:                                                              2

       Normalised Cartesian orbitals:

                        Set   Shell   Orbital            Exponent    Coefficient

                          1       1    2s               10.389228       0.396646
                                                         3.849621       0.208811
                                                         1.388401      -0.301641
                                                         0.496955      -0.274061
                                                         0.162492      -0.033677

                          1       2    3s               10.389228       0.303673
                                                         3.849621       0.240943
                                                         1.388401      -0.313066
                                                         0.496955      -0.043055
                                                         0.162492       0.213991

                          1       3    3px              10.389228      -1.530415
                                                         3.849621      -1.371928
                                                         1.388401      -0.761951
                                                         0.496955      -0.253695
                                                         0.162492      -0.035541
                          1       3    3py              10.389228      -1.530415
                                                         3.849621      -1.371928
                                                         1.388401      -0.761951
                                                         0.496955      -0.253695
                                                         0.162492      -0.035541
                          1       3    3pz              10.389228      -1.530415
                                                         3.849621      -1.371928
                                                         1.388401      -0.761951
                                                         0.496955      -0.253695
                                                         0.162492      -0.035541

                          1       4    4px              10.389228      -0.565392
                                                         3.849621      -0.038231
                                                         1.388401      -0.382373
                                                         0.496955       0.179070
                                                         0.162492       0.122714
                          1       4    4py              10.389228      -0.565392
                                                         3.849621      -0.038231
                                                         1.388401      -0.382373
                                                         0.496955       0.179070
                                                         0.162492       0.122714
                          1       4    4pz              10.389228      -0.565392
                                                         3.849621      -0.038231
                                                         1.388401      -0.382373
                                                         0.496955       0.179070
                                                         0.162492       0.122714

                          1       5    4dx2             10.389228       1.867377
                                                         3.849621       0.670994
                                                         1.388401       1.353441
                                                         0.496955       0.273538
                                                         0.162492       0.006620
                          1       5    4dxy             10.389228       3.234392
                                                         3.849621       1.162195
                                                         1.388401       2.344229
                                                         0.496955       0.473781
                                                         0.162492       0.011466
                          1       5    4dxz             10.389228       3.234392
                                                         3.849621       1.162195
                                                         1.388401       2.344229
                                                         0.496955       0.473781
                                                         0.162492       0.011466
                          1       5    4dy2             10.389228       1.867377
                                                         3.849621       0.670994
                                                         1.388401       1.353441
                                                         0.496955       0.273538
                                                         0.162492       0.006620
                          1       5    4dyz             10.389228       3.234392
                                                         3.849621       1.162195
                                                         1.388401       2.344229
                                                         0.496955       0.473781
                                                         0.162492       0.011466
                          1       5    4dz2             10.389228       1.867377
                                                         3.849621       0.670994
                                                         1.388401       1.353441
                                                         0.496955       0.273538
                                                         0.162492       0.006620

     GTH Potential information for                                    GTH-PBE-q6

       Description:                       Goedecker-Teter-Hutter pseudopotential
                                           Goedecker et al., PRB 54, 1703 (1996)
                                          Hartwigsen et al., PRB 58, 3641 (1998)
                                                      Krack, TCA 114, 145 (2005)

       Gaussian exponent of the core charge distribution:               8.360253
       Electronic configuration (s p d ...):                               2   4

       Parameters of the local part of the GTH pseudopotential:

                          rloc        C1          C2          C3          C4
                        0.244554  -16.667215    2.487311

       Parameters of the non-local part of the GTH pseudopotential:

                   l      r(l)      h(i,j,l)

                   0    0.220956   18.337458
                   1    0.211332

  5. Atomic kind: Ni                                    Number of atoms:       4

     Orbital Basis Set                                    DZVP-MOLOPT-SR-GTH-q18

       Number of orbital shell sets:                                           1
       Number of orbital shells:                                               8
       Number of primitive Cartesian functions:                                6
       Number of Cartesian basis functions:                                   31
       Number of spherical basis functions:                                   26
       Norm type:                                                              2

       Normalised Cartesian orbitals:

                        Set   Shell   Orbital            Exponent    Coefficient

                          1       1    2s               10.077428      -0.684558
                                                         5.847736      -0.844524
                                                         2.494033       1.088856
                                                         0.988355       0.395503
                                                         0.344978       0.010224
                                                         0.099466      -0.003250

                          1       2    3s               10.077428       0.096747
                                                         5.847736       0.162504
                                                         2.494033      -0.297192
                                                         0.988355      -0.319752
                                                         0.344978       0.088318
                                                         0.099466       0.118587

                          1       3    4s               10.077428       0.036437
                                                         5.847736      -0.381480
                                                         2.494033       0.003759
                                                         0.988355      -1.048256
                                                         0.344978       0.855825
                                                         0.099466      -0.176350

                          1       4    3px              10.077428      -3.133913
                                                         5.847736       3.027656
                                                         2.494033       2.353227
                                                         0.988355       0.554184
                                                         0.344978       0.019462
                                                         0.099466      -0.000291
                          1       4    3py              10.077428      -3.133913
                                                         5.847736       3.027656
                                                         2.494033       2.353227
                                                         0.988355       0.554184
                                                         0.344978       0.019462
                                                         0.099466      -0.000291
                          1       4    3pz              10.077428      -3.133913
                                                         5.847736       3.027656
                                                         2.494033       2.353227
                                                         0.988355       0.554184
                                                         0.344978       0.019462
                                                         0.099466      -0.000291

                          1       5    4px              10.077428      -0.112729
                                                         5.847736      -0.114008
                                                         2.494033      -0.347303
                                                         0.988355      -0.110323
                                                         0.344978       0.154096
                                                         0.099466       0.058386
                          1       5    4py              10.077428      -0.112729
                                                         5.847736      -0.114008
                                                         2.494033      -0.347303
                                                         0.988355      -0.110323
                                                         0.344978       0.154096
                                                         0.099466       0.058386
                          1       5    4pz              10.077428      -0.112729
                                                         5.847736      -0.114008
                                                         2.494033      -0.347303
                                                         0.988355      -0.110323
                                                         0.344978       0.154096
                                                         0.099466       0.058386

                          1       6    4dx2             10.077428       8.232726
                                                         5.847736       9.105758
                                                         2.494033       2.849835
                                                         0.988355       0.554319
                                                         0.344978       0.067245
                                                         0.099466       0.001940
                          1       6    4dxy             10.077428      14.259500
                                                         5.847736      15.771636
                                                         2.494033       4.936060
                                                         0.988355       0.960109
                                                         0.344978       0.116472
                                                         0.099466       0.003360
                          1       6    4dxz             10.077428      14.259500
                                                         5.847736      15.771636
                                                         2.494033       4.936060
                                                         0.988355       0.960109
                                                         0.344978       0.116472
                                                         0.099466       0.003360
                          1       6    4dy2             10.077428       8.232726
                                                         5.847736       9.105758
                                                         2.494033       2.849835
                                                         0.988355       0.554319
                                                         0.344978       0.067245
                                                         0.099466       0.001940
                          1       6    4dyz             10.077428      14.259500
                                                         5.847736      15.771636
                                                         2.494033       4.936060
                                                         0.988355       0.960109
                                                         0.344978       0.116472
                                                         0.099466       0.003360
                          1       6    4dz2             10.077428       8.232726
                                                         5.847736       9.105758
                                                         2.494033       2.849835
                                                         0.988355       0.554319
                                                         0.344978       0.067245
                                                         0.099466       0.001940

                          1       7    5dx2             10.077428      -2.715373
                                                         5.847736      -4.020640
                                                         2.494033      -1.397569
                                                         0.988355      -0.076143
                                                         0.344978       0.033435
                                                         0.099466       0.026032
                          1       7    5dxy             10.077428      -4.703164
                                                         5.847736      -6.963952
                                                         2.494033      -2.420661
                                                         0.988355      -0.131883
                                                         0.344978       0.057911
                                                         0.099466       0.045088
                          1       7    5dxz             10.077428      -4.703164
                                                         5.847736      -6.963952
                                                         2.494033      -2.420661
                                                         0.988355      -0.131883
                                                         0.344978       0.057911
                                                         0.099466       0.045088
                          1       7    5dy2             10.077428      -2.715373
                                                         5.847736      -4.020640
                                                         2.494033      -1.397569
                                                         0.988355      -0.076143
                                                         0.344978       0.033435
                                                         0.099466       0.026032
                          1       7    5dyz             10.077428      -4.703164
                                                         5.847736      -6.963952
                                                         2.494033      -2.420661
                                                         0.988355      -0.131883
                                                         0.344978       0.057911
                                                         0.099466       0.045088
                          1       7    5dz2             10.077428      -2.715373
                                                         5.847736      -4.020640
                                                         2.494033      -1.397569
                                                         0.988355      -0.076143
                                                         0.344978       0.033435
                                                         0.099466       0.026032

                          1       8    5fx3             10.077428      -0.467694
                                                         5.847736       0.618100
                                                         2.494033       0.066069
                                                         0.988355       0.262898
                                                         0.344978       0.004720
                                                         0.099466       0.007748
                          1       8    5fx2y            10.077428      -1.045795
                                                         5.847736       1.382114
                                                         2.494033       0.147734
                                                         0.988355       0.587859
                                                         0.344978       0.010555
                                                         0.099466       0.017325
                          1       8    5fx2z            10.077428      -1.045795
                                                         5.847736       1.382114
                                                         2.494033       0.147734
                                                         0.988355       0.587859
                                                         0.344978       0.010555
                                                         0.099466       0.017325
                          1       8    5fxy2            10.077428      -1.045795
                                                         5.847736       1.382114
                                                         2.494033       0.147734
                                                         0.988355       0.587859
                                                         0.344978       0.010555
                                                         0.099466       0.017325
                          1       8    5fxyz            10.077428      -1.811371
                                                         5.847736       2.393892
                                                         2.494033       0.255883
                                                         0.988355       1.018201
                                                         0.344978       0.018282
                                                         0.099466       0.030008
                          1       8    5fxz2            10.077428      -1.045795
                                                         5.847736       1.382114
                                                         2.494033       0.147734
                                                         0.988355       0.587859
                                                         0.344978       0.010555
                                                         0.099466       0.017325
                          1       8    5fy3             10.077428      -0.467694
                                                         5.847736       0.618100
                                                         2.494033       0.066069
                                                         0.988355       0.262898
                                                         0.344978       0.004720
                                                         0.099466       0.007748
                          1       8    5fy2z            10.077428      -1.045795
                                                         5.847736       1.382114
                                                         2.494033       0.147734
                                                         0.988355       0.587859
                                                         0.344978       0.010555
                                                         0.099466       0.017325
                          1       8    5fyz2            10.077428      -1.045795
                                                         5.847736       1.382114
                                                         2.494033       0.147734
                                                         0.988355       0.587859
                                                         0.344978       0.010555
                                                         0.099466       0.017325
                          1       8    5fz3             10.077428      -0.467694
                                                         5.847736       0.618100
                                                         2.494033       0.066069
                                                         0.988355       0.262898
                                                         0.344978       0.004720
                                                         0.099466       0.007748

     GTH Potential information for                                   GTH-PBE-q18

       Description:                       Goedecker-Teter-Hutter pseudopotential
                                           Goedecker et al., PRB 54, 1703 (1996)
                                          Hartwigsen et al., PRB 58, 3641 (1998)
                                                      Krack, TCA 114, 145 (2005)

       Gaussian exponent of the core charge distribution:               4.081633
       Electronic configuration (s p d ...):                           4   6   8

       Parameters of the local part of the GTH pseudopotential:

                          rloc        C1          C2          C3          C4
                        0.350000    2.102166    0.648484

       Parameters of the non-local part of the GTH pseudopotential:

                   l      r(l)      h(i,j,l)

                   0    0.261295    0.622658    9.970227
                                    9.970227  -12.871507
                   1    0.224253  -11.142708   12.429566
                                   12.429566  -14.706861
                   2    0.215348  -12.628146


 MOLECULE KIND INFORMATION


 All atoms are their own molecule, skipping detailed information


 TOTAL NUMBERS AND MAXIMUM NUMBERS

  Total number of            - Atomic kinds:                                   5
                             - Atoms:                                        586
                             - Shell sets:                                   586
                             - Shells:                                      2608
                             - Primitive Cartesian functions:               2970
                             - Cartesian basis functions:                   6832
                             - Spherical basis functions:                   6352

  Maximum angular momentum of- Orbital basis functions:                        3
                             - Local part of the GTH pseudopotential:          2
                             - Non-local part of the GTH pseudopotential:      4


 MODULE QUICKSTEP:  ATOMIC COORDINATES IN angstrom

  Atom  Kind  Element       X           Y           Z          Z(eff)       Mass

       1     1 C    6   11.858343   14.053627   13.736498      4.00      12.0107
       2     1 C    6   12.455813   12.890475   13.018244      4.00      12.0107
       3     1 C    6   11.704223   12.171922   12.076241      4.00      12.0107
       4     1 C    6   12.280517   11.109658   11.383867      4.00      12.0107
       5     1 C    6   13.620906   10.739442   11.611937      4.00      12.0107
       6     1 C    6   14.353888   11.442541   12.585894      4.00      12.0107
       7     1 C    6   13.781081   12.507548   13.277423      4.00      12.0107
       8     1 C    6   14.260545    9.648851   10.838528      4.00      12.0107
       9     1 C    6   14.256143    9.656888    9.416818      4.00      12.0107
      10     1 C    6   13.742825   10.758921    8.662880      4.00      12.0107
      11     1 C    6   49.126576   21.233232   13.874599      4.00      12.0107
      12     1 C    6   48.549806   22.401050   13.147426      4.00      12.0107
      13     1 C    6   49.300051   23.068857   12.166918      4.00      12.0107
      14     1 C    6   48.733081   24.107947   11.433698      4.00      12.0107
      15     1 C    6   47.402301   24.509053   11.661860      4.00      12.0107
      16     1 C    6   46.671014   23.859545   12.674702      4.00      12.0107
      17     1 C    6   47.233508   22.814670   13.404069      4.00      12.0107
      18     1 C    6   46.772164   25.586839   10.864605      4.00      12.0107
      19     1 C    6   46.761360   25.557359    9.442845      4.00      12.0107
      20     1 C    6   47.261245   24.442221    8.699387      4.00      12.0107
      21     1 C    6   14.860323    8.570652    8.703591      4.00      12.0107
      22     1 C    6   14.891234    8.596854   11.515198      4.00      12.0107
      23     1 C    6   49.113006   21.203376    2.150439      4.00      12.0107
      24     1 C    6   48.527567   22.364569    2.877747      4.00      12.0107
      25     1 C    6   49.267074   23.025926    3.870029      4.00      12.0107
      26     1 C    6   48.690676   24.060440    4.601480      4.00      12.0107
      27     1 C    6   47.359961   24.456537    4.363811      4.00      12.0107
      28     1 C    6   46.639147   23.810817    3.341109      4.00      12.0107
      29     1 C    6   47.212748   22.774906    2.609361      4.00      12.0107
      30     1 C    6   46.721621   25.531628    5.154774      4.00      12.0107
      31     1 C    6   46.733590   25.528143    6.576466      4.00      12.0107
      32     1 C    6   47.248971   24.428898    7.332836      4.00      12.0107
      33     1 C    6   40.622725   17.135890    7.308280      4.00      12.0107
      34     1 C    6   40.637484   17.129094    4.498943      4.00      12.0107
      35     1 C    6   11.882778   14.086569    2.290507      4.00      12.0107
      36     1 C    6   12.472078   12.910536    2.994650      4.00      12.0107
      37     1 C    6   11.714553   12.177467    3.920836      4.00      12.0107
      38     1 C    6   12.281073   11.094981    4.589318      4.00      12.0107
      39     1 C    6   13.619827   10.721094    4.357446      4.00      12.0107
      40     1 C    6   14.357745   11.436433    3.396422      4.00      12.0107
      41     1 C    6   13.792380   12.517608    2.723677      4.00      12.0107
      42     1 C    6   14.253540    9.624444    5.127934      4.00      12.0107
      43     1 C    6   14.252416    9.644518    6.549779      4.00      12.0107
      44     1 C    6   13.742331   10.753382    7.296833      4.00      12.0107
      45     1 C    6   22.512030    3.244835   13.748185      4.00      12.0107
      46     1 C    6   23.226665    4.351497   13.049438      4.00      12.0107
      47     1 C    6   24.225167    4.073457   12.104290      4.00      12.0107
      48     1 C    6   24.851548    5.114269   11.423266      4.00      12.0107
      49     1 C    6   24.495233    6.455585   11.667157      4.00      12.0107
      50     1 C    6   23.524987    6.725248   12.649456      4.00      12.0107
      51     1 C    6   22.894077    5.686209   13.328894      4.00      12.0107
      52     1 C    6   25.099937    7.562833   10.891085      4.00      12.0107
      53     1 C    6   25.070960    7.555597    9.469503      4.00      12.0107
      54     1 C    6   24.366703    6.556403    8.725189      4.00      12.0107
      55     1 C    6   38.302748   31.929256   13.843916      4.00      12.0107
      56     1 C    6   37.573826   30.839161   13.134690      4.00      12.0107
      57     1 C    6   36.616088   31.141588   12.154696      4.00      12.0107
      58     1 C    6   36.000243   30.120181   11.436738      4.00      12.0107
      59     1 C    6   36.327105   28.771275   11.677489      4.00      12.0107
      60     1 C    6   37.254858   28.476368   12.694183      4.00      12.0107
      61     1 C    6   37.875102   29.496455   13.410661      4.00      12.0107
      62     1 C    6   35.726710   27.678382   10.880295      4.00      12.0107
      63     1 C    6   35.760955   27.691761    9.459042      4.00      12.0107
      64     1 C    6   36.467937   28.693647    8.722196      4.00      12.0107
      65     1 C    6   25.695165    8.623787    8.747817      4.00      12.0107
      66     1 C    6   25.697960    8.638215   11.560089      4.00      12.0107
      67     1 C    6   38.329071   31.961814    2.161592      4.00      12.0107
      68     1 C    6   37.608944   30.887823    2.903646      4.00      12.0107
      69     1 C    6   36.681807   31.194794    3.911292      4.00      12.0107
      70     1 C    6   36.073943   30.175005    4.640967      4.00      12.0107
      71     1 C    6   36.378832   28.822819    4.386421      4.00      12.0107
      72     1 C    6   37.283443   28.525878    3.348637      4.00      12.0107
      73     1 C    6   37.893499   29.542098    2.620337      4.00      12.0107
      74     1 C    6   35.773148   27.722280    5.170381      4.00      12.0107
      75     1 C    6   35.784747   27.714131    6.592364      4.00      12.0107
      76     1 C    6   36.478847   28.704710    7.355675      4.00      12.0107
      77     1 C    6   46.135770   26.620898    7.286562      4.00      12.0107
      78     1 C    6   46.087596   26.579896    4.478669      4.00      12.0107
      79     1 C    6   22.459865    3.255669    2.263351      4.00      12.0107
      80     1 C    6   23.151832    4.364734    2.988086      4.00      12.0107
      81     1 C    6   24.152467    4.079120    3.930506      4.00      12.0107
      82     1 C    6   24.778724    5.109547    4.627678      4.00      12.0107
      83     1 C    6   24.424547    6.455185    4.404499      4.00      12.0107
      84     1 C    6   23.446636    6.734105    3.430973      4.00      12.0107
      85     1 C    6   22.815571    5.703877    2.734645      4.00      12.0107
      86     1 C    6   25.055337    7.553860    5.177875      4.00      12.0107
      87     1 C    6   25.048979    7.549759    6.600649      4.00      12.0107
      88     1 C    6   24.354346    6.554815    7.358570      4.00      12.0107
      89     1 C    6   26.623985   17.862210   13.782492      4.00      12.0107
      90     1 C    6   25.314656   17.910555   13.058082      4.00      12.0107
      91     1 C    6   25.020079   18.956200   12.165676      4.00      12.0107
      92     1 C    6   23.810251   18.969844   11.470509      4.00      12.0107
      93     1 C    6   22.855192   17.950236   11.655665      4.00      12.0107
      94     1 C    6   23.144426   16.928328   12.579513      4.00      12.0107
      95     1 C    6   24.357719   16.903475   13.265594      4.00      12.0107
      96     1 C    6   21.580555   17.938746   10.891592      4.00      12.0107
      97     1 C    6   21.583244   17.930179    9.469719      4.00      12.0107
      98     1 C    6   22.791285   17.827636    8.709711      4.00      12.0107
      99     1 C    6   34.419967   17.224361   13.871208      4.00      12.0107
     100     1 C    6   35.713261   17.170628   13.133861      4.00      12.0107
     101     1 C    6   35.908959   16.225284   12.114936      4.00      12.0107
     102     1 C    6   37.096384   16.209729   11.389461      4.00      12.0107
     103     1 C    6   38.118650   17.141066   11.658497      4.00      12.0107
     104     1 C    6   37.924987   18.065473   12.703058      4.00      12.0107
     105     1 C    6   36.736817   18.084388   13.429026      4.00      12.0107
     106     1 C    6   39.373894   17.153943   10.874175      4.00      12.0107
     107     1 C    6   39.368150   17.171501    9.451868      4.00      12.0107
     108     1 C    6   38.161655   17.298166    8.693623      4.00      12.0107
     109     1 C    6   20.335747   17.939498    8.762210      4.00      12.0107
     110     1 C    6   20.357369   17.930834   11.576157      4.00      12.0107
     111     1 C    6   34.449162   17.234687    2.186932      4.00      12.0107
     112     1 C    6   35.753070   17.130265    2.899503      4.00      12.0107
     113     1 C    6   35.952557   16.168889    3.902147      4.00      12.0107
     114     1 C    6   37.142616   16.154705    4.626170      4.00      12.0107
     115     1 C    6   38.159494   17.093176    4.367399      4.00      12.0107
     116     1 C    6   37.967273   18.022846    3.327100      4.00      12.0107
     117     1 C    6   36.777098   18.046908    2.607382      4.00      12.0107
     118     1 C    6   39.406105   17.122453    5.163916      4.00      12.0107
[...]
 flops     5 x    29 x    13         550599617880       0.0%    100.0%      0.0%
 flops   256 x   285 x   285         571824000000       0.0%    100.0%      0.0%
 flops   285 x   256 x   285         571824000000       0.0%    100.0%      0.0%
 flops   285 x   285 x   256         571824000000       0.0%    100.0%      0.0%
 flops    26 x     5 x   256         573970575360       0.0%    100.0%      0.0%
 flops     5 x    26 x   256         576257310720       0.0%    100.0%      0.0%
 flops   256 x   285 x   288         577843200000       0.0%    100.0%      0.0%
 flops   256 x   288 x   285         577843200000       0.0%    100.0%      0.0%
 flops   285 x   256 x   288         577843200000       0.0%    100.0%      0.0%
 flops   285 x   288 x   256         577843200000       0.0%    100.0%      0.0%
 flops   288 x   256 x   285         577843200000       0.0%    100.0%      0.0%
 flops   288 x   285 x   256         577843200000       0.0%    100.0%      0.0%
 flops    26 x     5 x   288         645716897280       0.0%    100.0%      0.0%
 flops     5 x    26 x   288         648289474560       0.0%    100.0%      0.0%
 flops     5 x     5 x   256         768914764800       0.0%    100.0%      0.0%
 flops     5 x     5 x   288         865029110400       0.0%    100.0%      0.0%
 flops    26 x    13 x   257         899787041244       0.0%    100.0%      0.0%
 flops    13 x    26 x   257         907247961984       0.0%    100.0%      0.0%
 flops    26 x    13 x   285         997818314220       0.0%    100.0%      0.0%
 flops    13 x    26 x   285        1006092097920       0.0%    100.0%      0.0%
 flops   288 x   288 x   257        1006826029056       0.0%    100.0%      0.0%
 flops   257 x   288 x   288        1006826029056       0.0%    100.0%      0.0%
 flops   288 x   257 x   288        1006826029056       0.0%    100.0%      0.0%
 flops   256 x   256 x   285        1027276800000       0.0%    100.0%      0.0%
 flops   256 x   285 x   256        1027276800000       0.0%    100.0%      0.0%
 flops   285 x   256 x   256        1027276800000       0.0%    100.0%      0.0%
 flops     5 x    13 x   257        1078199200910       0.0%    100.0%      0.0%
 flops    13 x     5 x   257        1084989182030       0.0%    100.0%      0.0%
 flops     5 x    13 x   285        1195668374550       0.0%    100.0%      0.0%
 flops    13 x     5 x   285        1203198120150       0.0%    100.0%      0.0%
 flops   256 x   256 x   288        1483827314688       0.0%    100.0%      0.0%
 flops   256 x   288 x   256        1483827314688       0.0%    100.0%      0.0%
 flops   288 x   256 x   256        1483827314688       0.0%    100.0%      0.0%
 flops   288 x   288 x   256        1586834178048       0.0%    100.0%      0.0%
 flops   256 x   288 x   288        1586834178048       0.0%    100.0%      0.0%
 flops   288 x   256 x   288        1586834178048       0.0%    100.0%      0.0%
 flops   256 x   256 x   256        2043599126528       0.0%    100.0%      0.0%
 flops    13 x    29 x    13        2212509302380       0.0%    100.0%      0.0%
 flops   288 x   288 x   288        2585002180608       0.0%    100.0%      0.0%
 flops    26 x    13 x   256        2688857773056       0.0%    100.0%      0.0%
 flops    13 x    26 x   256        2711153442816       0.0%    100.0%      0.0%
 flops   256 x   257 x  1587        2750209551360       0.0%    100.0%      0.0%
 flops   257 x   256 x  1587        2750209551360       0.0%    100.0%      0.0%
 flops   256 x   257 x  1589        2753675473920       0.0%    100.0%      0.0%
 flops   257 x   256 x  1589        2753675473920       0.0%    100.0%      0.0%
 flops   257 x   257 x  1587        2760952557420       0.0%    100.0%      0.0%
 flops   257 x   257 x  1589        2764432018740       0.0%    100.0%      0.0%
 flops    26 x    13 x   288        3024964994688       0.0%    100.0%      0.0%
 flops    13 x    26 x   288        3050047623168       0.0%    100.0%      0.0%
 flops     5 x    13 x   256        3222011619840       0.0%    100.0%      0.0%
 flops    13 x     5 x   256        3242302302720       0.0%    100.0%      0.0%
 flops   285 x   285 x  1587        3395333335500       0.0%    100.0%      0.0%
 flops   285 x   285 x  1589        3399612268500       0.0%    100.0%      0.0%
 flops   285 x   288 x  1587        3431073686400       0.0%    100.0%      0.0%
 flops   288 x   285 x  1587        3431073686400       0.0%    100.0%      0.0%
 flops   285 x   288 x  1589        3435397660800       0.0%    100.0%      0.0%
 flops   288 x   285 x  1589        3435397660800       0.0%    100.0%      0.0%
 flops     5 x    13 x   288        3624763072320       0.0%    100.0%      0.0%
 flops    13 x     5 x   288        3647590090560       0.0%    100.0%      0.0%
 flops  1587 x   256 x   257        3659010763776       0.0%    100.0%      0.0%
 flops  1587 x   257 x   256        3659010763776       0.0%    100.0%      0.0%
 flops  1589 x   256 x   257        3663621993472       0.0%    100.0%      0.0%
 flops  1589 x   257 x   256        3663621993472       0.0%    100.0%      0.0%
 flops  1587 x   257 x   257        3673303774572       0.0%    100.0%      0.0%
 flops  1589 x   257 x   257        3677933016884       0.0%    100.0%      0.0%
 flops    26 x    32 x    26        4191295180800       0.0%    100.0%      0.0%
 flops    13 x    13 x   257        4392247427412       0.0%    100.0%      0.0%
 flops  1587 x   285 x   285        4517314404300       0.0%    100.0%      0.0%
 flops  1589 x   285 x   285        4523007302100       0.0%    100.0%      0.0%
 flops  1587 x   288 x   285        4564865082240       0.0%    100.0%      0.0%
 flops  1587 x   285 x   288        4564865082240       0.0%    100.0%      0.0%
 flops  1589 x   285 x   288        4570617905280       0.0%    100.0%      0.0%
 flops  1589 x   288 x   285        4570617905280       0.0%    100.0%      0.0%
 flops    13 x    13 x   285        4870780221060       0.0%    100.0%      0.0%
 flops   256 x   285 x  1587        6099686553600       0.0%    100.0%      0.0%
 flops   285 x   256 x  1587        6099686553600       0.0%    100.0%      0.0%
 flops   256 x   285 x  1589        6107373619200       0.0%    100.0%      0.0%
 flops   285 x   256 x  1589        6107373619200       0.0%    100.0%      0.0%
 flops   257 x   288 x  1587        6187971490560       0.0%    100.0%      0.0%
 flops   288 x   257 x  1587        6187971490560       0.0%    100.0%      0.0%
 flops   257 x   288 x  1589        6195769816320       0.0%    100.0%      0.0%
 flops   288 x   257 x  1589        6195769816320       0.0%    100.0%      0.0%
 flops     5 x    32 x    26        7112758016000       0.0%    100.0%      0.0%
 flops    26 x    32 x     5        7112758016000       0.0%    100.0%      0.0%
 flops  1587 x   256 x   285        8115315701760       0.0%    100.0%      0.0%
 flops  1587 x   285 x   256        8115315701760       0.0%    100.0%      0.0%
 flops  1589 x   256 x   285        8125542942720       0.0%    100.0%      0.0%
 flops  1589 x   285 x   256        8125542942720       0.0%    100.0%      0.0%
 flops  1587 x   288 x   257        8232774218496       0.0%    100.0%      0.0%
 flops  1587 x   257 x   288        8232774218496       0.0%    100.0%      0.0%
 flops  1589 x   257 x   288        8243149485312       0.0%    100.0%      0.0%
 flops  1589 x   288 x   257        8243149485312       0.0%    100.0%      0.0%
 flops     5 x    32 x     5        9377712960000       0.0%    100.0%      0.0%
 flops   256 x   288 x  1587       12327787560960       0.0%    100.0%      0.0%
 flops   288 x   256 x  1587       12327787560960       0.0%    100.0%      0.0%
 flops   256 x   288 x  1589       12343323525120       0.0%    100.0%      0.0%
 flops   288 x   256 x  1589       12343323525120       0.0%    100.0%      0.0%
 flops    13 x    13 x   256       13125470911488       0.0%    100.0%      0.0%
 flops   256 x   256 x  1587       13697541734400       0.0%    100.0%      0.0%
 flops   256 x   256 x  1589       13714803916800       0.0%    100.0%      0.0%
 flops    13 x    13 x   288       14766154775424       0.0%    100.0%      0.0%
 flops  1587 x   257 x  1587       16010925955488       0.0%    100.0%      0.0%
 flops  1589 x   257 x  1587       16031103555936       0.0%    100.0%      0.0%
 flops  1587 x   257 x  1589       16031103555936       0.0%    100.0%      0.0%
 flops  1589 x   257 x  1589       16051306584992       0.0%    100.0%      0.0%
 flops  1587 x   288 x   256       16401480155136       0.0%    100.0%      0.0%
 flops  1587 x   256 x   288       16401480155136       0.0%    100.0%      0.0%
 flops  1589 x   256 x   288       16422149947392       0.0%    100.0%      0.0%
 flops  1589 x   288 x   256       16422149947392       0.0%    100.0%      0.0%
 flops   288 x   288 x  1587       17335951257600       0.0%    100.0%      0.0%
 flops   288 x   288 x  1589       17357798707200       0.0%    100.0%      0.0%
 flops  1587 x   285 x  1587       17755306993440       0.0%    100.0%      0.0%
 flops  1589 x   285 x  1587       17777682931680       0.0%    100.0%      0.0%
 flops  1587 x   285 x  1589       17777682931680       0.0%    100.0%      0.0%
 flops  1589 x   285 x  1589       17800087068960       0.0%    100.0%      0.0%
 flops  1587 x   256 x   256       18223866839040       0.0%    100.0%      0.0%
 flops  1589 x   256 x   256       18246833274880       0.0%    100.0%      0.0%
 flops  1587 x   288 x   288       23064581468160       0.0%    100.0%      0.0%
 flops  1589 x   288 x   288       23093648363520       0.0%    100.0%      0.0%
 flops    13 x    32 x    26       33392489894400       0.0%    100.0%      0.0%
 flops    26 x    32 x    13       33392489894400       0.0%    100.0%      0.0%
 flops     5 x    32 x    13       39973905054720       0.0%    100.0%      0.0%
 flops    13 x    32 x     5       39973905054720       0.0%    100.0%      0.0%
 flops  1587 x   256 x  1587       47845879898112       0.0%    100.0%      0.0%
 flops  1589 x   256 x  1587       47906177163264       0.0%    100.0%      0.0%
 flops  1587 x   256 x  1589       47906177163264       0.0%    100.0%      0.0%
 flops  1589 x   256 x  1589       47966550417408       0.0%    100.0%      0.0%
 flops  1587 x   288 x  1587       53826614885376       0.0%    100.0%      0.0%
 flops  1587 x   288 x  1589       53894449308672       0.0%    100.0%      0.0%
 flops  1589 x   288 x  1587       53894449308672       0.0%    100.0%      0.0%
 flops  1589 x   288 x  1589       53962369219584       0.0%    100.0%      0.0%
 flops    13 x    32 x    13      160629673403264       0.0%    100.0%      0.0%
 flops inhomo. stacks                           0       0.0%      0.0%      0.0%
 flops total                         1.453312E+15       0.0%    100.0%      0.0%
 flops max/rank                     96.995930E+12       0.0%    100.0%      0.0%
 matmuls inhomo. stacks                         0       0.0%      0.0%      0.0%
 matmuls total                        47390076946       0.0%    100.0%      0.0%
 number of processed stacks              60720150       0.0%    100.0%      0.0%
 average stack size                                     0.0     780.5       0.0
 marketing flops                     2.663949E+15
 -------------------------------------------------------------------------------
 # multiplications                          68984
 max memory usage/rank               2.276667E+09
 # max total images/rank                        1
 # max 3D layers                                1
 # MPI messages exchanged                 6622464
 MPI messages size (bytes):
  total size                        23.339374E+12
  min size                           0.000000E+00
  max size                          20.199368E+06
  average size                       3.524274E+06
 MPI breakdown and total messages size (bytes):
             size <=      128               60456                        0
       128 < size <=     8192                   0                        0
      8192 < size <=    32768                   0                        0
     32768 < size <=   131072                5496                381697200
    131072 < size <=  4194304             5650704           13590543864960
   4194304 < size <= 16777216              608976            3752768327904
  16777216 < size                          296832            5988274520064
 -------------------------------------------------------------------------------
 -                                                                             -
 -                      DBCSR MESSAGE PASSING PERFORMANCE                      -
 -                                                                             -
 -------------------------------------------------------------------------------
 ROUTINE             CALLS      AVE VOLUME [Bytes]
 MP_Group             9014
 MP_Bcast              191                     12.
 MP_Allreduce       341095                     22.
 MP_Alltoall        334429                 823086.
 MP_Wait           3311232
 MP_ISend          1101912                1371416.
 MP_IRecv          1101912                1359013.
 MP_Memory         2678240
 -------------------------------------------------------------------------------

 MEMORY| Estimated peak process memory [MiB]                                2172

 -------------------------------------------------------------------------------
 ----                             MULTIGRID INFO                            ----
 -------------------------------------------------------------------------------
 count for grid        1:        1657680          cutoff [a.u.]          180.00
 count for grid        2:         393520          cutoff [a.u.]           60.00
 count for grid        3:         224320          cutoff [a.u.]           20.00
 count for grid        4:          22240          cutoff [a.u.]            6.67
 count for grid        5:            640          cutoff [a.u.]            2.22
 total gridlevel count  :        2298400

 -------------------------------------------------------------------------------
 -                                                                             -
 -                         MESSAGE PASSING PERFORMANCE                         -
 -                                                                             -
 -------------------------------------------------------------------------------

 ROUTINE             CALLS      AVE VOLUME [Bytes]
 MP_Group                6
 MP_Bcast             1235                6812998.
 MP_Allreduce           91                  18149.
 MP_Sync                 5
 -------------------------------------------------------------------------------


 -------------------------------------------------------------------------------
 -                                                                             -
 -                           R E F E R E N C E S                               -
 -                                                                             -
 -------------------------------------------------------------------------------
 
 CP2K version 7.1, the CP2K developers group (2019).
 CP2K is freely available from https://www.cp2k.org/ .

 Schuett, Ole; Messmer, Peter; Hutter, Juerg; VandeVondele, Joost. 
 Electronic Structure Calculations on Graphics Processing Units, John
 Wiley & Sons, Ltd, 173-190 (2016). 
 GPU-Accelerated Sparse Matrix-Matrix Multiplication for
 Linear Scaling Density Functional Theory.
 https://dx.doi.org/10.1002/9781118670712.ch8

 Borstnik, U; VandeVondele, J; Weber, V; Hutter, J. 
 PARALLEL COMPUTING, 40 (5-6), 47-58 (2014). 
 Sparse matrix multiplication: The distributed block-compressed sparse
 row library.
 https://dx.doi.org/10.1016/j.parco.2014.03.012

 Hutter, J; Iannuzzi, M; Schiffmann, F; VandeVondele, J. 
 WIREs Comput Mol Sci., 4 (1), 15-25 (2014). 
 CP2K: atomistic simulations of condensed matter systems.
 https://dx.doi.org/10.1002/wcms.1159

 Grimme, S; Ehrlich, S; Goerigk, L. 
 JOURNAL OF COMPUTATIONAL CHEMISTRY, 32, 1456 (2011). 
 Effect of the damping function in dispersion corrected density functional theory.
 https://dx.doi.org/10.1002/jcc.21759

 Grimme, S; Antony, J; Ehrlich, S; Krieg, H. 
 JOURNAL OF CHEMICAL PHYSICS, 132 (15), 154104 (2010). 
 A consistent and accurate ab initio parametrization of density
 functional dispersion correction (DFT-D) for the 94 elements H-Pu.
 https://dx.doi.org/10.1063/1.3382344

 VandeVondele, J; Hutter, J. 
 JOURNAL OF CHEMICAL PHYSICS, 127 (11), 114105 (2007). 
 Gaussian basis sets for accurate calculations on molecular systems in
 gas and condensed phases.
 https://dx.doi.org/10.1063/1.2770708

 Krack, M. 
 THEORETICAL CHEMISTRY ACCOUNTS, 114 (1-3), 145-152 (2005). 
 Pseudopotentials for H to Kr optimized for gradient-corrected
 exchange-correlation functionals.
 https://dx.doi.org/10.1007/s00214-005-0655-y

 VandeVondele, J; Krack, M; Mohamed, F; Parrinello, M; Chassaing, T;
 Hutter, J. COMPUTER PHYSICS COMMUNICATIONS, 167 (2), 103-128 (2005). 
 QUICKSTEP: Fast and accurate density functional calculations using a
 mixed Gaussian and plane waves approach.
 https://dx.doi.org/10.1016/j.cpc.2004.12.014

 Frigo, M; Johnson, SG. 
 PROCEEDINGS OF THE IEEE, 93 (2), 216-231 (2005). 
 The design and implementation of FFTW3.
 https://dx.doi.org/10.1109/JPROC.2004.840301

 Kolafa, J. 
 JOURNAL OF COMPUTATIONAL CHEMISTRY, 25 (3), 335-342 (2004). 
 Time-reversible always stable predictor-corrector method for molecular dynamics of polarizable molecules.
 https://dx.doi.org/10.1002/jcc.10385

 VandeVondele, J; Hutter, J. 
 JOURNAL OF CHEMICAL PHYSICS, 118 (10), 4365-4369 (2003). 
 An efficient orbital transformation method for electronic structure
 calculations.
 https://dx.doi.org/10.1063/1.1543154

 Hartwigsen, C; Goedecker, S; Hutter, J. 
 PHYSICAL REVIEW B, 58 (7), 3641-3662 (1998). 
 Relativistic separable dual-space Gaussian pseudopotentials from H to Rn.
 https://dx.doi.org/10.1103/PhysRevB.58.3641

 Lippert, G; Hutter, J; Parrinello, M. 
 MOLECULAR PHYSICS, 92 (3), 477-487 (1997). 
 A hybrid Gaussian and plane wave density functional scheme.
 https://dx.doi.org/10.1080/002689797170220

 Perdew, JP; Burke, K; Ernzerhof, M. 
 PHYSICAL REVIEW LETTERS, 77 (18), 3865-3868 (1996). 
 Generalized gradient approximation made simple.
 https://dx.doi.org/10.1103/PhysRevLett.77.3865

 Goedecker, S; Teter, M; Hutter, J. 
 PHYSICAL REVIEW B, 54 (3), 1703-1710 (1996). 
 Separable dual-space Gaussian pseudopotentials.
 https://dx.doi.org/10.1103/PhysRevB.54.1703


 -------------------------------------------------------------------------------
 -                                                                             -
 -                                T I M I N G                                  -
 -                                                                             -
 -------------------------------------------------------------------------------
 SUBROUTINE                       CALLS  ASD         SELF TIME        TOTAL TIME
                                MAXIMUM       AVERAGE  MAXIMUM  AVERAGE  MAXIMUM
 CP2K                                 1  1.0      0.0      0.0 109636.1 109636.6
 vb_anal                              1  2.0 109631.7 109632.2 109634.0 109634.5
 -------------------------------------------------------------------------------

 The number of warnings for this run is : 0
 
 -------------------------------------------------------------------------------
  **** **** ******  **  PROGRAM ENDED AT                 2021-11-29 10:55:04.366
 ***** ** ***  *** **   PROGRAM RAN ON             node1943.palmetto.clemson.edu
 **    ****   ******    PROGRAM RAN BY                                   svicchi
 ***** **    ** ** **   PROGRAM PROCESS ID                                163291
  **** **  *******  **  PROGRAM STOPPED IN  /scratch2/svicchi/CP2K-4064487.pbs02
