 DBCSR| CPU Multiplication driver                                           XSMM
 DBCSR| Multrec recursion limit                                              512
 DBCSR| Multiplication stack size                                           1000
 DBCSR| Maximum elements for images                                    UNLIMITED
 DBCSR| Multiplicative factor virtual images                                   1
 DBCSR| Use multiplication densification                                       T
 DBCSR| Multiplication size stacks                                             3
 DBCSR| Number of 3D layers                                               SINGLE
 DBCSR| Use MPI memory allocation                                              T
 DBCSR| Use RMA algorithm                                                      F
 DBCSR| Use Communication thread                                               T
 DBCSR| Communication thread load                                             87


  **** **** ******  **  PROGRAM STARTED AT               2022-05-09 21:19:34.604
 ***** ** ***  *** **   PROGRAM STARTED ON         node0148.palmetto.clemson.edu
 **    ****   ******    PROGRAM STARTED BY                               svicchi
 ***** **    ** ** **   PROGRAM PROCESS ID                                372630
  **** **  *******  **  PROGRAM STARTED IN /zfs/curium/svicchi/00-MOF/02-CP2K/01
                                           -triplet-ni/01-3ni4/00-3ni4-bare/02-b
                                           uilding-up/00-bare/03-tight-adsorptio
                                           n-H-calculations/00-H2-ADSandDIS/20-f
                                           inal_calculations/00-maroon_structure
                                           /freq

 CP2K| version string:                                          CP2K version 7.1
 CP2K| source code revision number:                                  git:e635599
 CP2K| cp2kflags: libint fftw3 libxc parallel mpi3 scalapack xsmm               
 CP2K| is freely available from                            https://www.cp2k.org/
 CP2K| Program compiled at                          Wed Aug 12 10:01:37 EDT 2020
 CP2K| Program compiled on                           util02.palmetto.clemson.edu
 CP2K| Program compiled for                          linux-centos8-ivybridge-gcc
 CP2K| Data directory path    /software/spackages/linux-centos8-ivybridge/gcc-8.
 CP2K| Input file name        ni4oh6-missing-2-OH-same-config2-pos-1-converged.i

 GLOBAL| Force Environment number                                              1
 GLOBAL| Basis set file name                                          BASIS_file
 GLOBAL| Potential file name                                     POTENTIALS_file
 GLOBAL| MM Potential file name                                     MM_POTENTIAL
 GLOBAL| Coordinate file name           info-ni4oh6-missing-2-OH-same-config2-po
 GLOBAL| Method name                                                        CP2K
 GLOBAL| Project name                   info-ni4oh6-missing-2-OH-same-config2-po
 GLOBAL| Preferred FFT library                                             FFTW3
 GLOBAL| Preferred diagonalization lib.                                       SL
 GLOBAL| Run type                                           VIBRATIONAL_ANALYSIS
 GLOBAL| All-to-all communication in single precision                          F
 GLOBAL| FFTs using library dependent lengths                                  F
 GLOBAL| Global print level                                               MEDIUM
 GLOBAL| MPI I/O enabled                                                       T
 GLOBAL| Total number of message passing processes                            16
 GLOBAL| Number of threads for this process                                    1
 GLOBAL| This output is from process                                           0
 GLOBAL| CPU model name                 Intel(R) Xeon(R) Gold 6148 CPU @ 2.40GHz
 GLOBAL| CPUID                                                              1003
 GLOBAL| Compiled for CPUID                                                 1001

 MEMORY| system memory details [Kb]
 MEMORY|                        rank 0           min           max       average
 MEMORY| MemTotal            394575320     394575320     394575320     394575320
 MEMORY| MemFree             365628620     365590624     365628620     365616941
 MEMORY| Buffers                  7536          7536          7536          7536
 MEMORY| Cached               10576104      10576104      10576104      10576104
 MEMORY| Slab                  2982368       2982368       2982368       2982368
 MEMORY| SReclaimable          1826664       1826664       1826664       1826664
 MEMORY| MemLikelyFree       378038924     378000928     378038924     378027245


 *** Fundamental physical constants (SI units) ***

 *** Literature: B. J. Mohr and B. N. Taylor,
 ***             CODATA recommended values of the fundamental physical
 ***             constants: 2006, Web Version 5.1
 ***             http://physics.nist.gov/constants

 Speed of light in vacuum [m/s]                             2.99792458000000E+08
 Magnetic constant or permeability of vacuum [N/A**2]       1.25663706143592E-06
 Electric constant or permittivity of vacuum [F/m]          8.85418781762039E-12
 Planck constant (h) [J*s]                                  6.62606896000000E-34
 Planck constant (h-bar) [J*s]                              1.05457162825177E-34
 Elementary charge [C]                                      1.60217648700000E-19
 Electron mass [kg]                                         9.10938215000000E-31
 Electron g factor [ ]                                     -2.00231930436220E+00
 Proton mass [kg]                                           1.67262163700000E-27
 Fine-structure constant                                    7.29735253760000E-03
 Rydberg constant [1/m]                                     1.09737315685270E+07
 Avogadro constant [1/mol]                                  6.02214179000000E+23
 Boltzmann constant [J/K]                                   1.38065040000000E-23
 Atomic mass unit [kg]                                      1.66053878200000E-27
 Bohr radius [m]                                            5.29177208590000E-11

 *** Conversion factors ***

 [u] -> [a.u.]                                              1.82288848426455E+03
 [Angstrom] -> [Bohr] = [a.u.]                              1.88972613288564E+00
 [a.u.] = [Bohr] -> [Angstrom]                              5.29177208590000E-01
 [a.u.] -> [s]                                              2.41888432650478E-17
 [a.u.] -> [fs]                                             2.41888432650478E-02
 [a.u.] -> [J]                                              4.35974393937059E-18
 [a.u.] -> [N]                                              8.23872205491840E-08
 [a.u.] -> [K]                                              3.15774647902944E+05
 [a.u.] -> [kJ/mol]                                         2.62549961709828E+03
 [a.u.] -> [kcal/mol]                                       6.27509468713739E+02
 [a.u.] -> [Pa]                                             2.94210107994716E+13
 [a.u.] -> [bar]                                            2.94210107994716E+08
 [a.u.] -> [atm]                                            2.90362800883016E+08
 [a.u.] -> [eV]                                             2.72113838565563E+01
 [a.u.] -> [Hz]                                             6.57968392072181E+15
 [a.u.] -> [1/cm] (wave numbers)                            2.19474631370540E+05
 [a.u./Bohr**2] -> [1/cm]                                   5.14048714338585E+03
 

 CELL_TOP| Volume [angstrom^3]:                                        22838.217
 CELL_TOP| Vector a [angstrom    40.611     0.000     0.000    |a| =      40.611
 CELL_TOP| Vector b [angstrom    20.305    35.170     0.000    |b| =      40.611
 CELL_TOP| Vector c [angstrom     0.000     0.000    15.990    |c| =      15.990
 CELL_TOP| Angle (b,c), alpha [degree]:                                   90.000
 CELL_TOP| Angle (a,c), beta  [degree]:                                   90.000
 CELL_TOP| Angle (a,b), gamma [degree]:                                   60.000
 CELL_TOP| Requested initial symmetry:                       MONOCLINIC_GAMMA_AB
 CELL_TOP| Numerically orthorhombic:                                          NO

 CELL| Volume [angstrom^3]:                                            22838.217
 CELL| Vector a [angstrom]:      40.611     0.000     0.000    |a| =      40.611
 CELL| Vector b [angstrom]:      20.305    35.170     0.000    |b| =      40.611
 CELL| Vector c [angstrom]:       0.000     0.000    15.990    |c| =      15.990
 CELL| Angle (b,c), alpha [degree]:                                       90.000
 CELL| Angle (a,c), beta  [degree]:                                       90.000
 CELL| Angle (a,b), gamma [degree]:                                       60.000
 CELL| Requested initial symmetry:                           MONOCLINIC_GAMMA_AB
 CELL| Numerically orthorhombic:                                              NO

 CELL_REF| Volume [angstrom^3]:                                        22838.217
 CELL_REF| Vector a [angstrom    40.611     0.000     0.000    |a| =      40.611
 CELL_REF| Vector b [angstrom    20.305    35.170     0.000    |b| =      40.611
 CELL_REF| Vector c [angstrom     0.000     0.000    15.990    |c| =      15.990
 CELL_REF| Angle (b,c), alpha [degree]:                                   90.000
 CELL_REF| Angle (a,c), beta  [degree]:                                   90.000
 CELL_REF| Angle (a,b), gamma [degree]:                                   60.000
 CELL_REF| Requested initial symmetry:                       MONOCLINIC_GAMMA_AB
 CELL_REF| Numerically orthorhombic:                                          NO

 *******************************************************************************
 *******************************************************************************
 **                                                                           **
 **     #####                         ##              ##                      **
 **    ##   ##            ##          ##              ##                      **
 **   ##     ##                       ##            ######                    **
 **   ##     ##  ##   ##  ##   #####  ##  ##   ####   ##    #####    #####    **
 **   ##     ##  ##   ##  ##  ##      ## ##   ##      ##   ##   ##  ##   ##   **
 **   ##  ## ##  ##   ##  ##  ##      ####     ###    ##   ######   ######    **
 **    ##  ###   ##   ##  ##  ##      ## ##      ##   ##   ##       ##        **
 **     #######   #####   ##   #####  ##  ##  ####    ##    #####   ##        **
 **           ##                                                    ##        **
 **                                                                           **
 **                                                ... make the atoms dance   **
 **                                                                           **
 **            Copyright (C) by CP2K developers group (2000 - 2019)           **
 **                                                                           **
 *******************************************************************************

 DFT| Spin unrestricted (spin-polarized) Kohn-Sham calculation               UKS
 DFT| Multiplicity                                                             9
 DFT| Number of spin states                                                    2
 DFT| Charge                                                                   0
 DFT| Self-interaction correction (SIC)                                       NO
 DFT| Cutoffs: density                                              1.000000E-10
 DFT|          gradient                                             1.000000E-10
 DFT|          tau                                                  1.000000E-10
 DFT|          cutoff_smoothing_range                               0.000000E+00
 DFT| XC density smoothing                                                  NONE
 DFT| XC derivatives                                                          PW
 FUNCTIONAL| ROUTINE=NEW
 FUNCTIONAL| PBE:
 FUNCTIONAL| J.P.Perdew, K.Burke, M.Ernzerhof, Phys. Rev. Letter, vol. 77, n 18,
 FUNCTIONAL|  pp. 3865-3868, (1996){spin polarized}                             
 vdW POTENTIAL|                                                   Pair Potential
 vdW POTENTIAL|          DFT-D3 (Version 3.1)
 vdW POTENTIAL|          Potential Form: S. Grimme et al, JCP 132: 154104 (2010)
 vdW POTENTIAL|          BJ Damping: S. Grimme et al, JCC 32: 1456 (2011)
 vdW POTENTIAL|          Cutoff Radius [Bohr]:                             20.00
 vdW POTENTIAL|          s6 Scaling Factor:                               1.0000
 vdW POTENTIAL|          a1 Damping Factor:                               0.4289
 vdW POTENTIAL|          s8 Scaling Factor:                               0.7875
 vdW POTENTIAL|          a2 Damping Factor:                               4.4407
 vdW POTENTIAL|          Cutoff for CN calculation:                   0.1000E-05

 QS| Method:                                                                 GPW
 QS| Density plane wave grid type                        NON-SPHERICAL FULLSPACE
 QS| Number of grid levels:                                                    5
 QS| Density cutoff [a.u.]:                                                180.0
 QS| Multi grid cutoff [a.u.]: 1) grid level                               180.0
 QS|                           2) grid level                                60.0
 QS|                           3) grid level                                20.0
 QS|                           4) grid level                                 6.7
 QS|                           5) grid level                                 2.2
 QS| Grid level progression factor:                                          3.0
 QS| Relative density cutoff [a.u.]:                                        40.0
 QS| Consistent realspace mapping and integration 
 QS| Interaction thresholds: eps_pgf_orb:                                1.0E-05
 QS|                         eps_filter_matrix:                          0.0E+00
 QS|                         eps_core_charge:                            1.0E-12
 QS|                         eps_rho_gspace:                             1.0E-10
 QS|                         eps_rho_rspace:                             1.0E-10
 QS|                         eps_gvg_rspace:                             1.0E-05
 QS|                         eps_ppl:                                    1.0E-02
 QS|                         eps_ppnl:                                   1.0E-07


 ATOMIC KIND INFORMATION

  1. Atomic kind: C                                     Number of atoms:     264

     Orbital Basis Set                                     DZVP-MOLOPT-SR-GTH-q4

       Number of orbital shell sets:                                           1
       Number of orbital shells:                                               5
       Number of primitive Cartesian functions:                                5
       Number of Cartesian basis functions:                                   14
       Number of spherical basis functions:                                   13
       Norm type:                                                              2

       Normalised Cartesian orbitals:

                        Set   Shell   Orbital            Exponent    Coefficient

                          1       1    2s                5.605331       0.322515
                                                         2.113016       0.213043
                                                         0.769911      -0.209686
                                                         0.348157      -0.219794
                                                         0.128212      -0.022789

                          1       2    3s                5.605331       0.552234
                                                         2.113016       0.082072
                                                         0.769911       0.007843
                                                         0.348157       0.136893
                                                         0.128212       0.074283

                          1       3    3px               5.605331      -0.703879
                                                         2.113016      -0.642521
                                                         0.769911      -0.374851
                                                         0.348157      -0.139743
                                                         0.128212      -0.027849
                          1       3    3py               5.605331      -0.703879
                                                         2.113016      -0.642521
                                                         0.769911      -0.374851
                                                         0.348157      -0.139743
                                                         0.128212      -0.027849
                          1       3    3pz               5.605331      -0.703879
                                                         2.113016      -0.642521
                                                         0.769911      -0.374851
                                                         0.348157      -0.139743
                                                         0.128212      -0.027849

                          1       4    4px               5.605331      -0.480376
                                                         2.113016      -0.552894
                                                         0.769911      -0.316145
                                                         0.348157       0.210505
                                                         0.128212       0.076095
                          1       4    4py               5.605331      -0.480376
                                                         2.113016      -0.552894
                                                         0.769911      -0.316145
                                                         0.348157       0.210505
                                                         0.128212       0.076095
                          1       4    4pz               5.605331      -0.480376
                                                         2.113016      -0.552894
                                                         0.769911      -0.316145
                                                         0.348157       0.210505
                                                         0.128212       0.076095

                          1       5    4dx2              5.605331       0.640026
                                                         2.113016       0.274300
                                                         0.769911       0.446711
                                                         0.348157       0.028674
                                                         0.128212       0.029790
                          1       5    4dxy              5.605331       1.108557
                                                         2.113016       0.475102
                                                         0.769911       0.773726
                                                         0.348157       0.049666
                                                         0.128212       0.051599
                          1       5    4dxz              5.605331       1.108557
                                                         2.113016       0.475102
                                                         0.769911       0.773726
                                                         0.348157       0.049666
                                                         0.128212       0.051599
                          1       5    4dy2              5.605331       0.640026
                                                         2.113016       0.274300
                                                         0.769911       0.446711
                                                         0.348157       0.028674
                                                         0.128212       0.029790
                          1       5    4dyz              5.605331       1.108557
                                                         2.113016       0.475102
                                                         0.769911       0.773726
                                                         0.348157       0.049666
                                                         0.128212       0.051599
                          1       5    4dz2              5.605331       0.640026
                                                         2.113016       0.274300
                                                         0.769911       0.446711
                                                         0.348157       0.028674
                                                         0.128212       0.029790

     GTH Potential information for                                    GTH-PBE-q4

       Description:                       Goedecker-Teter-Hutter pseudopotential
                                           Goedecker et al., PRB 54, 1703 (1996)
                                          Hartwigsen et al., PRB 58, 3641 (1998)
                                                      Krack, TCA 114, 145 (2005)

       Gaussian exponent of the core charge distribution:               4.364419
       Electronic configuration (s p d ...):                               2   2

       Parameters of the local part of the GTH pseudopotential:

                          rloc        C1          C2          C3          C4
                        0.338471   -8.803674    1.339211

       Parameters of the non-local part of the GTH pseudopotential:

                   l      r(l)      h(i,j,l)

                   0    0.302576    9.622487
                   1    0.291507

  2. Atomic kind: H                                     Number of atoms:     188

     Orbital Basis Set                                     DZVP-MOLOPT-SR-GTH-q1

       Number of orbital shell sets:                                           1
       Number of orbital shells:                                               3
       Number of primitive Cartesian functions:                                5
       Number of Cartesian basis functions:                                    5
       Number of spherical basis functions:                                    5
       Norm type:                                                              2

       Normalised Cartesian orbitals:

                        Set   Shell   Orbital            Exponent    Coefficient

                          1       1    2s               10.068468      -0.133023
                                                         2.680223      -0.177618
                                                         0.791502      -0.258419
                                                         0.239116      -0.107525
                                                         0.082193      -0.014019

                          1       2    3s               10.068468       0.344673
                                                         2.680223       1.819821
                                                         0.791502      -0.999069
                                                         0.239116       0.017430
                                                         0.082193       0.082660

                          1       3    3px              10.068468       0.155326
                                                         2.680223       0.367157
                                                         0.791502       0.311480
                                                         0.239116       0.080105
                                                         0.082193       0.033440
                          1       3    3py              10.068468       0.155326
                                                         2.680223       0.367157
                                                         0.791502       0.311480
                                                         0.239116       0.080105
                                                         0.082193       0.033440
                          1       3    3pz              10.068468       0.155326
                                                         2.680223       0.367157
                                                         0.791502       0.311480
                                                         0.239116       0.080105
                                                         0.082193       0.033440

     GTH Potential information for                                    GTH-PBE-q1

       Description:                       Goedecker-Teter-Hutter pseudopotential
                                           Goedecker et al., PRB 54, 1703 (1996)
                                          Hartwigsen et al., PRB 58, 3641 (1998)
                                                      Krack, TCA 114, 145 (2005)

       Gaussian exponent of the core charge distribution:              12.500000
       Electronic configuration (s p d ...):                                   1

       Parameters of the local part of the GTH pseudopotential:

                          rloc        C1          C2          C3          C4
                        0.200000   -4.178900    0.724463

  3. Atomic kind: O                                     Number of atoms:     104

     Orbital Basis Set                                     DZVP-MOLOPT-SR-GTH-q6

       Number of orbital shell sets:                                           1
       Number of orbital shells:                                               5
       Number of primitive Cartesian functions:                                5
       Number of Cartesian basis functions:                                   14
       Number of spherical basis functions:                                   13
       Norm type:                                                              2

       Normalised Cartesian orbitals:

                        Set   Shell   Orbital            Exponent    Coefficient

                          1       1    2s               10.389228       0.396646
                                                         3.849621       0.208811
                                                         1.388401      -0.301641
                                                         0.496955      -0.274061
                                                         0.162492      -0.033677

                          1       2    3s               10.389228       0.303673
                                                         3.849621       0.240943
                                                         1.388401      -0.313066
                                                         0.496955      -0.043055
                                                         0.162492       0.213991

                          1       3    3px              10.389228      -1.530415
                                                         3.849621      -1.371928
                                                         1.388401      -0.761951
                                                         0.496955      -0.253695
                                                         0.162492      -0.035541
                          1       3    3py              10.389228      -1.530415
                                                         3.849621      -1.371928
                                                         1.388401      -0.761951
                                                         0.496955      -0.253695
                                                         0.162492      -0.035541
                          1       3    3pz              10.389228      -1.530415
                                                         3.849621      -1.371928
                                                         1.388401      -0.761951
                                                         0.496955      -0.253695
                                                         0.162492      -0.035541

                          1       4    4px              10.389228      -0.565392
                                                         3.849621      -0.038231
                                                         1.388401      -0.382373
                                                         0.496955       0.179070
                                                         0.162492       0.122714
                          1       4    4py              10.389228      -0.565392
                                                         3.849621      -0.038231
                                                         1.388401      -0.382373
                                                         0.496955       0.179070
                                                         0.162492       0.122714
                          1       4    4pz              10.389228      -0.565392
                                                         3.849621      -0.038231
                                                         1.388401      -0.382373
                                                         0.496955       0.179070
                                                         0.162492       0.122714

                          1       5    4dx2             10.389228       1.867377
                                                         3.849621       0.670994
                                                         1.388401       1.353441
                                                         0.496955       0.273538
                                                         0.162492       0.006620
                          1       5    4dxy             10.389228       3.234392
                                                         3.849621       1.162195
                                                         1.388401       2.344229
                                                         0.496955       0.473781
                                                         0.162492       0.011466
                          1       5    4dxz             10.389228       3.234392
                                                         3.849621       1.162195
                                                         1.388401       2.344229
                                                         0.496955       0.473781
                                                         0.162492       0.011466
                          1       5    4dy2             10.389228       1.867377
                                                         3.849621       0.670994
                                                         1.388401       1.353441
                                                         0.496955       0.273538
                                                         0.162492       0.006620
                          1       5    4dyz             10.389228       3.234392
                                                         3.849621       1.162195
                                                         1.388401       2.344229
                                                         0.496955       0.473781
                                                         0.162492       0.011466
                          1       5    4dz2             10.389228       1.867377
                                                         3.849621       0.670994
                                                         1.388401       1.353441
                                                         0.496955       0.273538
                                                         0.162492       0.006620

     GTH Potential information for                                    GTH-PBE-q6

       Description:                       Goedecker-Teter-Hutter pseudopotential
                                           Goedecker et al., PRB 54, 1703 (1996)
                                          Hartwigsen et al., PRB 58, 3641 (1998)
                                                      Krack, TCA 114, 145 (2005)

       Gaussian exponent of the core charge distribution:               8.360253
       Electronic configuration (s p d ...):                               2   4

       Parameters of the local part of the GTH pseudopotential:

                          rloc        C1          C2          C3          C4
                        0.244554  -16.667215    2.487311

       Parameters of the non-local part of the GTH pseudopotential:

                   l      r(l)      h(i,j,l)

                   0    0.220956   18.337458
                   1    0.211332

  4. Atomic kind: Zr                                    Number of atoms:      18

     Orbital Basis Set                                    DZVP-MOLOPT-SR-GTH-q12

       Number of orbital shell sets:                                           1
       Number of orbital shells:                                               8
       Number of primitive Cartesian functions:                                7
       Number of Cartesian basis functions:                                   31
       Number of spherical basis functions:                                   26
       Norm type:                                                              2

       Normalised Cartesian orbitals:

                        Set   Shell   Orbital            Exponent    Coefficient

                          1       1    2s                7.568386      -0.292925
                                                         2.940870       1.053802
                                                         1.478550      -0.194175
                                                         0.699653      -0.477593
                                                         0.314575      -0.092850
                                                         0.129869       0.000474
                                                         0.046851      -0.000485

                          1       2    3s                7.568386      -0.107602
                                                         2.940870       0.453694
                                                         1.478550      -0.133469
                                                         0.699653      -0.242646
                                                         0.314575      -0.112324
                                                         0.129869       0.079936
                                                         0.046851       0.057275

                          1       3    4s                7.568386      -0.039443
                                                         2.940870      -0.239516
                                                         1.478550       0.462939
                                                         0.699653       0.054202
                                                         0.314575       0.378792
                                                         0.129869      -0.467495
                                                         0.046851       0.135277

                          1       4    3px               7.568386      -0.367032
                                                         2.940870       1.199938
                                                         1.478550      -0.729727
                                                         0.699653      -0.527717
                                                         0.314575      -0.102074
                                                         0.129869      -0.002163
                                                         0.046851      -0.000016
                          1       4    3py               7.568386      -0.367032
                                                         2.940870       1.199938
                                                         1.478550      -0.729727
                                                         0.699653      -0.527717
                                                         0.314575      -0.102074
                                                         0.129869      -0.002163
                                                         0.046851      -0.000016
                          1       4    3pz               7.568386      -0.367032
                                                         2.940870       1.199938
                                                         1.478550      -0.729727
                                                         0.699653      -0.527717
                                                         0.314575      -0.102074
                                                         0.129869      -0.002163
                                                         0.046851      -0.000016

                          1       5    4px               7.568386      -0.041149
                                                         2.940870       0.296409
                                                         1.478550      -0.285807
                                                         0.699653      -0.254468
                                                         0.314575       0.008755
                                                         0.129869       0.053085
                                                         0.046851       0.019526
                          1       5    4py               7.568386      -0.041149
                                                         2.940870       0.296409
                                                         1.478550      -0.285807
                                                         0.699653      -0.254468
                                                         0.314575       0.008755
                                                         0.129869       0.053085
                                                         0.046851       0.019526
                          1       5    4pz               7.568386      -0.041149
                                                         2.940870       0.296409
                                                         1.478550      -0.285807
                                                         0.699653      -0.254468
                                                         0.314575       0.008755
                                                         0.129869       0.053085
                                                         0.046851       0.019526

                          1       6    4dx2              7.568386      -0.104612
                                                         2.940870      -0.141339
                                                         1.478550       0.540679
                                                         0.699653       0.284252
                                                         0.314575       0.094561
                                                         0.129869       0.012195
                                                         0.046851       0.000412
                          1       6    4dxy              7.568386      -0.181193
                                                         2.940870      -0.244806
                                                         1.478550       0.936483
                                                         0.699653       0.492339
                                                         0.314575       0.163785
                                                         0.129869       0.021122
                                                         0.046851       0.000713
                          1       6    4dxz              7.568386      -0.181193
                                                         2.940870      -0.244806
                                                         1.478550       0.936483
                                                         0.699653       0.492339
                                                         0.314575       0.163785
                                                         0.129869       0.021122
                                                         0.046851       0.000713
                          1       6    4dy2              7.568386      -0.104612
                                                         2.940870      -0.141339
                                                         1.478550       0.540679
                                                         0.699653       0.284252
                                                         0.314575       0.094561
                                                         0.129869       0.012195
                                                         0.046851       0.000412
                          1       6    4dyz              7.568386      -0.181193
                                                         2.940870      -0.244806
                                                         1.478550       0.936483
                                                         0.699653       0.492339
                                                         0.314575       0.163785
                                                         0.129869       0.021122
                                                         0.046851       0.000713
                          1       6    4dz2              7.568386      -0.104612
                                                         2.940870      -0.141339
                                                         1.478550       0.540679
                                                         0.699653       0.284252
                                                         0.314575       0.094561
                                                         0.129869       0.012195
                                                         0.046851       0.000412

                          1       7    5dx2              7.568386      -0.107600
                                                         2.940870       0.230973
                                                         1.478550      -0.200541
                                                         0.699653      -0.193347
                                                         0.314575       0.007888
                                                         0.129869       0.006706
                                                         0.046851       0.006900
                          1       7    5dxy              7.568386      -0.186369
                                                         2.940870       0.400056
                                                         1.478550      -0.347346
                                                         0.699653      -0.334887
                                                         0.314575       0.013663
                                                         0.129869       0.011615
                                                         0.046851       0.011951
                          1       7    5dxz              7.568386      -0.186369
                                                         2.940870       0.400056
                                                         1.478550      -0.347346
                                                         0.699653      -0.334887
                                                         0.314575       0.013663
                                                         0.129869       0.011615
                                                         0.046851       0.011951
                          1       7    5dy2              7.568386      -0.107600
                                                         2.940870       0.230973
                                                         1.478550      -0.200541
                                                         0.699653      -0.193347
                                                         0.314575       0.007888
                                                         0.129869       0.006706
                                                         0.046851       0.006900
                          1       7    5dyz              7.568386      -0.186369
                                                         2.940870       0.400056
                                                         1.478550      -0.347346
                                                         0.699653      -0.334887
                                                         0.314575       0.013663
                                                         0.129869       0.011615
                                                         0.046851       0.011951
                          1       7    5dz2              7.568386      -0.107600
                                                         2.940870       0.230973
                                                         1.478550      -0.200541
                                                         0.699653      -0.193347
                                                         0.314575       0.007888
                                                         0.129869       0.006706
                                                         0.046851       0.006900

                          1       8    5fx3              7.568386       0.371480
                                                         2.940870      -0.155968
                                                         1.478550      -0.211323
                                                         0.699653      -0.255968
                                                         0.314575      -0.046738
                                                         0.129869      -0.005674
                                                         0.046851       0.000171
                          1       8    5fx2y             7.568386       0.830655
                                                         2.940870      -0.348756
                                                         1.478550      -0.472533
                                                         0.699653      -0.572361
                                                         0.314575      -0.104510
                                                         0.129869      -0.012687
                                                         0.046851       0.000382
                          1       8    5fx2z             7.568386       0.830655
                                                         2.940870      -0.348756
                                                         1.478550      -0.472533
                                                         0.699653      -0.572361
                                                         0.314575      -0.104510
                                                         0.129869      -0.012687
                                                         0.046851       0.000382
                          1       8    5fxy2             7.568386       0.830655
                                                         2.940870      -0.348756
                                                         1.478550      -0.472533
                                                         0.699653      -0.572361
                                                         0.314575      -0.104510
                                                         0.129869      -0.012687
                                                         0.046851       0.000382
                          1       8    5fxyz             7.568386       1.438737
                                                         2.940870      -0.604063
                                                         1.478550      -0.818452
                                                         0.699653      -0.991359
                                                         0.314575      -0.181017
                                                         0.129869      -0.021975
                                                         0.046851       0.000662
                          1       8    5fxz2             7.568386       0.830655
                                                         2.940870      -0.348756
                                                         1.478550      -0.472533
                                                         0.699653      -0.572361
                                                         0.314575      -0.104510
                                                         0.129869      -0.012687
                                                         0.046851       0.000382
                          1       8    5fy3              7.568386       0.371480
                                                         2.940870      -0.155968
                                                         1.478550      -0.211323
                                                         0.699653      -0.255968
                                                         0.314575      -0.046738
                                                         0.129869      -0.005674
                                                         0.046851       0.000171
                          1       8    5fy2z             7.568386       0.830655
                                                         2.940870      -0.348756
                                                         1.478550      -0.472533
                                                         0.699653      -0.572361
                                                         0.314575      -0.104510
                                                         0.129869      -0.012687
                                                         0.046851       0.000382
                          1       8    5fyz2             7.568386       0.830655
                                                         2.940870      -0.348756
                                                         1.478550      -0.472533
                                                         0.699653      -0.572361
                                                         0.314575      -0.104510
                                                         0.129869      -0.012687
                                                         0.046851       0.000382
                          1       8    5fz3              7.568386       0.371480
                                                         2.940870      -0.155968
                                                         1.478550      -0.211323
                                                         0.699653      -0.255968
                                                         0.314575      -0.046738
                                                         0.129869      -0.005674
                                                         0.046851       0.000171

     GTH Potential information for                                   GTH-PBE-q12

       Description:                       Goedecker-Teter-Hutter pseudopotential
                                           Goedecker et al., PRB 54, 1703 (1996)
                                          Hartwigsen et al., PRB 58, 3641 (1998)
                                                      Krack, TCA 114, 145 (2005)

       Gaussian exponent of the core charge distribution:               2.263468
       Electronic configuration (s p d ...):                           4   6   2

       Parameters of the local part of the GTH pseudopotential:

                          rloc        C1          C2          C3          C4
                        0.470000    7.796057   -1.893210

       Parameters of the non-local part of the GTH pseudopotential:

                   l      r(l)      h(i,j,l)

                   0    0.259829   23.380874   -8.571939
                                   -8.571939   11.066326
                   1    0.288969    8.592766   -5.377358
                                   -5.377358    6.362576
                   2    0.581245    0.027811    0.276862
                                    0.276862   -0.313932

  5. Atomic kind: Ni                                    Number of atoms:       4

     Orbital Basis Set                                    DZVP-MOLOPT-SR-GTH-q18

       Number of orbital shell sets:                                           1
       Number of orbital shells:                                               8
       Number of primitive Cartesian functions:                                6
       Number of Cartesian basis functions:                                   31
       Number of spherical basis functions:                                   26
       Norm type:                                                              2

       Normalised Cartesian orbitals:

                        Set   Shell   Orbital            Exponent    Coefficient

                          1       1    2s               10.077428      -0.684558
                                                         5.847736      -0.844524
                                                         2.494033       1.088856
                                                         0.988355       0.395503
                                                         0.344978       0.010224
                                                         0.099466      -0.003250

                          1       2    3s               10.077428       0.096747
                                                         5.847736       0.162504
                                                         2.494033      -0.297192
                                                         0.988355      -0.319752
                                                         0.344978       0.088318
                                                         0.099466       0.118587

                          1       3    4s               10.077428       0.036437
                                                         5.847736      -0.381480
                                                         2.494033       0.003759
                                                         0.988355      -1.048256
                                                         0.344978       0.855825
                                                         0.099466      -0.176350

                          1       4    3px              10.077428      -3.133913
                                                         5.847736       3.027656
                                                         2.494033       2.353227
                                                         0.988355       0.554184
                                                         0.344978       0.019462
                                                         0.099466      -0.000291
                          1       4    3py              10.077428      -3.133913
                                                         5.847736       3.027656
                                                         2.494033       2.353227
                                                         0.988355       0.554184
                                                         0.344978       0.019462
                                                         0.099466      -0.000291
                          1       4    3pz              10.077428      -3.133913
                                                         5.847736       3.027656
                                                         2.494033       2.353227
                                                         0.988355       0.554184
                                                         0.344978       0.019462
                                                         0.099466      -0.000291

                          1       5    4px              10.077428      -0.112729
                                                         5.847736      -0.114008
                                                         2.494033      -0.347303
                                                         0.988355      -0.110323
                                                         0.344978       0.154096
                                                         0.099466       0.058386
                          1       5    4py              10.077428      -0.112729
                                                         5.847736      -0.114008
                                                         2.494033      -0.347303
                                                         0.988355      -0.110323
                                                         0.344978       0.154096
                                                         0.099466       0.058386
                          1       5    4pz              10.077428      -0.112729
                                                         5.847736      -0.114008
                                                         2.494033      -0.347303
                                                         0.988355      -0.110323
                                                         0.344978       0.154096
                                                         0.099466       0.058386

                          1       6    4dx2             10.077428       8.232726
                                                         5.847736       9.105758
                                                         2.494033       2.849835
                                                         0.988355       0.554319
                                                         0.344978       0.067245
                                                         0.099466       0.001940
                          1       6    4dxy             10.077428      14.259500
                                                         5.847736      15.771636
                                                         2.494033       4.936060
                                                         0.988355       0.960109
                                                         0.344978       0.116472
                                                         0.099466       0.003360
                          1       6    4dxz             10.077428      14.259500
                                                         5.847736      15.771636
                                                         2.494033       4.936060
                                                         0.988355       0.960109
                                                         0.344978       0.116472
                                                         0.099466       0.003360
                          1       6    4dy2             10.077428       8.232726
                                                         5.847736       9.105758
                                                         2.494033       2.849835
                                                         0.988355       0.554319
                                                         0.344978       0.067245
                                                         0.099466       0.001940
                          1       6    4dyz             10.077428      14.259500
                                                         5.847736      15.771636
                                                         2.494033       4.936060
                                                         0.988355       0.960109
                                                         0.344978       0.116472
                                                         0.099466       0.003360
                          1       6    4dz2             10.077428       8.232726
                                                         5.847736       9.105758
                                                         2.494033       2.849835
                                                         0.988355       0.554319
                                                         0.344978       0.067245
                                                         0.099466       0.001940

                          1       7    5dx2             10.077428      -2.715373
                                                         5.847736      -4.020640
                                                         2.494033      -1.397569
                                                         0.988355      -0.076143
                                                         0.344978       0.033435
                                                         0.099466       0.026032
                          1       7    5dxy             10.077428      -4.703164
                                                         5.847736      -6.963952
                                                         2.494033      -2.420661
                                                         0.988355      -0.131883
                                                         0.344978       0.057911
                                                         0.099466       0.045088
                          1       7    5dxz             10.077428      -4.703164
                                                         5.847736      -6.963952
                                                         2.494033      -2.420661
                                                         0.988355      -0.131883
                                                         0.344978       0.057911
                                                         0.099466       0.045088
                          1       7    5dy2             10.077428      -2.715373
                                                         5.847736      -4.020640
                                                         2.494033      -1.397569
                                                         0.988355      -0.076143
                                                         0.344978       0.033435
                                                         0.099466       0.026032
                          1       7    5dyz             10.077428      -4.703164
                                                         5.847736      -6.963952
                                                         2.494033      -2.420661
                                                         0.988355      -0.131883
                                                         0.344978       0.057911
                                                         0.099466       0.045088
                          1       7    5dz2             10.077428      -2.715373
                                                         5.847736      -4.020640
                                                         2.494033      -1.397569
                                                         0.988355      -0.076143
                                                         0.344978       0.033435
                                                         0.099466       0.026032

                          1       8    5fx3             10.077428      -0.467694
                                                         5.847736       0.618100
                                                         2.494033       0.066069
                                                         0.988355       0.262898
                                                         0.344978       0.004720
                                                         0.099466       0.007748
                          1       8    5fx2y            10.077428      -1.045795
                                                         5.847736       1.382114
                                                         2.494033       0.147734
                                                         0.988355       0.587859
                                                         0.344978       0.010555
                                                         0.099466       0.017325
                          1       8    5fx2z            10.077428      -1.045795
                                                         5.847736       1.382114
                                                         2.494033       0.147734
                                                         0.988355       0.587859
                                                         0.344978       0.010555
                                                         0.099466       0.017325
                          1       8    5fxy2            10.077428      -1.045795
                                                         5.847736       1.382114
                                                         2.494033       0.147734
                                                         0.988355       0.587859
                                                         0.344978       0.010555
                                                         0.099466       0.017325
                          1       8    5fxyz            10.077428      -1.811371
                                                         5.847736       2.393892
                                                         2.494033       0.255883
                                                         0.988355       1.018201
                                                         0.344978       0.018282
                                                         0.099466       0.030008
                          1       8    5fxz2            10.077428      -1.045795
                                                         5.847736       1.382114
                                                         2.494033       0.147734
                                                         0.988355       0.587859
                                                         0.344978       0.010555
                                                         0.099466       0.017325
                          1       8    5fy3             10.077428      -0.467694
                                                         5.847736       0.618100
                                                         2.494033       0.066069
                                                         0.988355       0.262898
                                                         0.344978       0.004720
                                                         0.099466       0.007748
                          1       8    5fy2z            10.077428      -1.045795
                                                         5.847736       1.382114
                                                         2.494033       0.147734
                                                         0.988355       0.587859
                                                         0.344978       0.010555
                                                         0.099466       0.017325
                          1       8    5fyz2            10.077428      -1.045795
                                                         5.847736       1.382114
                                                         2.494033       0.147734
                                                         0.988355       0.587859
                                                         0.344978       0.010555
                                                         0.099466       0.017325
                          1       8    5fz3             10.077428      -0.467694
                                                         5.847736       0.618100
                                                         2.494033       0.066069
                                                         0.988355       0.262898
                                                         0.344978       0.004720
                                                         0.099466       0.007748

     GTH Potential information for                                   GTH-PBE-q18

       Description:                       Goedecker-Teter-Hutter pseudopotential
                                           Goedecker et al., PRB 54, 1703 (1996)
                                          Hartwigsen et al., PRB 58, 3641 (1998)
                                                      Krack, TCA 114, 145 (2005)

       Gaussian exponent of the core charge distribution:               4.081633
       Electronic configuration (s p d ...):                           4   6   8

       Parameters of the local part of the GTH pseudopotential:

                          rloc        C1          C2          C3          C4
                        0.350000    2.102166    0.648484

       Parameters of the non-local part of the GTH pseudopotential:

                   l      r(l)      h(i,j,l)

                   0    0.261295    0.622658    9.970227
                                    9.970227  -12.871507
                   1    0.224253  -11.142708   12.429566
                                   12.429566  -14.706861
                   2    0.215348  -12.628146


 MOLECULE KIND INFORMATION


 All atoms are their own molecule, skipping detailed information


 TOTAL NUMBERS AND MAXIMUM NUMBERS

  Total number of            - Atomic kinds:                                   5
                             - Atoms:                                        578
                             - Shell sets:                                   578
                             - Shells:                                      2580
                             - Primitive Cartesian functions:               2930
                             - Cartesian basis functions:                   6774
                             - Spherical basis functions:                   6296

  Maximum angular momentum of- Orbital basis functions:                        3
                             - Local part of the GTH pseudopotential:          2
                             - Non-local part of the GTH pseudopotential:      4


 MODULE QUICKSTEP:  ATOMIC COORDINATES IN angstrom

  Atom  Kind  Element       X           Y           Z          Z(eff)       Mass

       1     1 C    6   11.859030   14.053520   13.736370      4.00      12.0107
       2     1 C    6   12.456530   12.890780   13.018020      4.00      12.0107
       3     1 C    6   11.704580   12.171240   12.077000      4.00      12.0107
       4     1 C    6   12.281000   11.109050   11.384710      4.00      12.0107
       5     1 C    6   13.621860   10.739880   11.611870      4.00      12.0107
       6     1 C    6   14.355380   11.444180   12.584530      4.00      12.0107
       7     1 C    6   13.782450   12.509170   13.275980      4.00      12.0107
       8     1 C    6   14.261260    9.649100   10.838520      4.00      12.0107
       9     1 C    6   14.256270    9.656880    9.416830      4.00      12.0107
      10     1 C    6   13.743010   10.758980    8.662960      4.00      12.0107
      11     1 C    6   49.127160   21.233080   13.874470      4.00      12.0107
      12     1 C    6   48.550490   22.401280   13.147530      4.00      12.0107
      13     1 C    6   49.300360   23.068220   12.166180      4.00      12.0107
      14     1 C    6   48.733480   24.107440   11.433020      4.00      12.0107
      15     1 C    6   47.403150   24.509530   11.662070      4.00      12.0107
      16     1 C    6   46.672460   23.861150   12.676090      4.00      12.0107
      17     1 C    6   47.234850   22.816170   13.405380      4.00      12.0107
      18     1 C    6   46.772760   25.587130   10.864790      4.00      12.0107
      19     1 C    6   46.761370   25.557310    9.443040      4.00      12.0107
      20     1 C    6   47.261340   24.442240    8.699520      4.00      12.0107
      21     1 C    6   14.860100    8.570490    8.703560      4.00      12.0107
      22     1 C    6   14.892280    8.597320   11.515180      4.00      12.0107
      23     1 C    6   49.113420   21.203380    2.150410      4.00      12.0107
      24     1 C    6   48.528060   22.364890    2.877570      4.00      12.0107
      25     1 C    6   49.267110   23.025110    3.870920      4.00      12.0107
      26     1 C    6   48.690860   24.059710    4.602430      4.00      12.0107
      27     1 C    6   47.360680   24.457010    4.363790      4.00      12.0107
      28     1 C    6   46.640540   23.812710    3.339670      4.00      12.0107
      29     1 C    6   47.214030   22.776800    2.607840      4.00      12.0107
      30     1 C    6   46.722140   25.531900    5.154850      4.00      12.0107
      31     1 C    6   46.733550   25.528090    6.576560      4.00      12.0107
      32     1 C    6   47.249000   24.428900    7.332970      4.00      12.0107
      33     1 C    6   40.632290   17.139460    7.328860      4.00      12.0107
      34     1 C    6   40.660000   17.180010    4.520040      4.00      12.0107
      35     1 C    6   11.883290   14.086580    2.290770      4.00      12.0107
      36     1 C    6   12.472710   12.911100    2.995170      4.00      12.0107
      37     1 C    6   11.714970   12.177300    3.920640      4.00      12.0107
      38     1 C    6   12.281660   11.094860    4.588960      4.00      12.0107
      39     1 C    6   13.620770   10.721790    4.357700      4.00      12.0107
      40     1 C    6   14.359070   11.438110    3.397730      4.00      12.0107
      41     1 C    6   13.793560   12.519270    2.725090      4.00      12.0107
      42     1 C    6   14.254260    9.624900    5.128010      4.00      12.0107
      43     1 C    6   14.252510    9.644610    6.549840      4.00      12.0107
      44     1 C    6   13.742550   10.753510    7.296920      4.00      12.0107
      45     1 C    6   22.512630    3.246500   13.746300      4.00      12.0107
      46     1 C    6   23.226010    4.352130   13.045080      4.00      12.0107
      47     1 C    6   24.220570    4.072920   12.095710      4.00      12.0107
      48     1 C    6   24.846650    5.112550   11.412460      4.00      12.0107
      49     1 C    6   24.494760    6.455200   11.656870      4.00      12.0107
      50     1 C    6   23.528420    6.725720   12.643290      4.00      12.0107
      51     1 C    6   22.897760    5.688000   13.325290      4.00      12.0107
      52     1 C    6   25.099840    7.562280   10.879760      4.00      12.0107
      53     1 C    6   25.073260    7.554720    9.457720      4.00      12.0107
      54     1 C    6   24.374290    6.553570    8.711210      4.00      12.0107
      55     1 C    6   38.303620   31.931560   13.845550      4.00      12.0107
      56     1 C    6   37.575040   30.841230   13.137260      4.00      12.0107
      57     1 C    6   36.613050   31.143570   12.161900      4.00      12.0107
      58     1 C    6   35.998250   30.121700   11.444330      4.00      12.0107
      59     1 C    6   36.332180   28.774240   11.681680      4.00      12.0107
      60     1 C    6   37.264370   28.479070   12.693720      4.00      12.0107
      61     1 C    6   37.882920   29.499690   13.410180      4.00      12.0107
      62     1 C    6   35.732400   27.682210   10.884890      4.00      12.0107
      63     1 C    6   35.759640   27.700810    9.463890      4.00      12.0107
      64     1 C    6   36.464200   28.704270    8.726710      4.00      12.0107
      65     1 C    6   25.694620    8.625620    8.737070      4.00      12.0107
      66     1 C    6   25.696730    8.638410   11.549130      4.00      12.0107
      67     1 C    6   38.328960   31.963790    2.161280      4.00      12.0107
      68     1 C    6   37.604480   30.893420    2.905140      4.00      12.0107
      69     1 C    6   36.679130   31.208640    3.911800      4.00      12.0107
      70     1 C    6   36.064350   30.194670    4.643590      4.00      12.0107
      71     1 C    6   36.360490   28.840570    4.390820      4.00      12.0107
      72     1 C    6   37.263930   28.535180    3.354600      4.00      12.0107
      73     1 C    6   37.881460   29.545890    2.624690      4.00      12.0107
      74     1 C    6   35.747180   27.745070    5.175810      4.00      12.0107
      75     1 C    6   35.767060   27.733270    6.597630      4.00      12.0107
      76     1 C    6   36.468440   28.719390    7.360170      4.00      12.0107
      77     1 C    6   46.135390   26.620650    7.286720      4.00      12.0107
      78     1 C    6   46.088410   26.580420    4.478820      4.00      12.0107
      79     1 C    6   22.462510    3.256280    2.262060      4.00      12.0107
      80     1 C    6   23.159620    4.364260    2.981920      4.00      12.0107
      81     1 C    6   24.163820    4.077610    3.920480      4.00      12.0107
      82     1 C    6   24.794820    5.107470    4.613990      4.00      12.0107
      83     1 C    6   24.441870    6.453690    4.391990      4.00      12.0107
      84     1 C    6   23.461060    6.733480    3.421580      4.00      12.0107
      85     1 C    6   22.825480    5.704010    2.728260      4.00      12.0107
      86     1 C    6   25.073080    7.551900    5.165730      4.00      12.0107
      87     1 C    6   25.060670    7.548350    6.588410      4.00      12.0107
      88     1 C    6   24.366350    6.551780    7.344450      4.00      12.0107
      89     1 C    6   26.622970   17.861600   13.782540      4.00      12.0107
      90     1 C    6   25.315190   17.901820   13.057730      4.00      12.0107
      91     1 C    6   25.064190   18.882830   12.085400      4.00      12.0107
      92     1 C    6   23.851460   18.900190   11.398750      4.00      12.0107
      93     1 C    6   22.853270   17.939380   11.660930      4.00      12.0107
      94     1 C    6   23.101690   16.980840   12.661630      4.00      12.0107
      95     1 C    6   24.316070   16.958150   13.346450      4.00      12.0107
      96     1 C    6   21.579930   17.921450   10.896410      4.00      12.0107
      97     1 C    6   21.579040   17.889650    9.473790      4.00      12.0107
      98     1 C    6   22.783200   17.752160    8.713660      4.00      12.0107
      99     1 C    6   34.420430   17.223710   13.907500      4.00      12.0107
     100     1 C    6   35.710260   17.160290   13.157470      4.00      12.0107
     101     1 C    6   35.912680   16.187520   12.165440      4.00      12.0107
     102     1 C    6   37.094810   16.168180   11.428830      4.00      12.0107
     103     1 C    6   38.108100   17.117770   11.667860      4.00      12.0107
     104     1 C    6   37.907550   18.069590   12.685320      4.00      12.0107
     105     1 C    6   36.722750   18.095730   13.417030      4.00      12.0107
     106     1 C    6   39.366640   17.121010   10.887730      4.00      12.0107
     107     1 C    6   39.367410   17.144250    9.466630      4.00      12.0107
     108     1 C    6   38.163530   17.273120    8.704650      4.00      12.0107
     109     1 C    6   20.332390   17.910710    8.765100      4.00      12.0107
     110     1 C    6   20.354610   17.931730   11.578200      4.00      12.0107
     111     1 C    6   34.478180   17.248670    2.182840      4.00      12.0107
     112     1 C    6   35.783800   17.178130    2.903390      4.00      12.0107
[...]
 flops     5 x     5 x   274         224918955400       0.0%    100.0%      0.0%
 flops     5 x     5 x   282         231485932200       0.0%    100.0%      0.0%
 flops    26 x    18 x    13         240651975096       0.0%    100.0%      0.0%
 flops    13 x    18 x    26         240651975096       0.0%    100.0%      0.0%
 flops    26 x    26 x   288         248539479552       0.0%    100.0%      0.0%
 flops   282 x   282 x   282         254173654512       0.0%    100.0%      0.0%
 flops   282 x   282 x   288         259581604608       0.0%    100.0%      0.0%
 flops   282 x   288 x   282         259581604608       0.0%    100.0%      0.0%
 flops   288 x   282 x   282         259581604608       0.0%    100.0%      0.0%
 flops   288 x   288 x   282         265104617472       0.0%    100.0%      0.0%
 flops   282 x   288 x   288         265104617472       0.0%    100.0%      0.0%
 flops   288 x   282 x   288         265104617472       0.0%    100.0%      0.0%
 flops     5 x    18 x    13         277802995860       0.0%    100.0%      0.0%
 flops    13 x    18 x     5         277802995860       0.0%    100.0%      0.0%
 flops   274 x   274 x   274         307780668688       0.0%    100.0%      0.0%
 flops   274 x   274 x   288         323506688256       0.0%    100.0%      0.0%
 flops   274 x   288 x   274         323506688256       0.0%    100.0%      0.0%
 flops   288 x   274 x   274         323506688256       0.0%    100.0%      0.0%
 flops    26 x    26 x    13         336120893056       0.0%    100.0%      0.0%
 flops    13 x    26 x    26         337291595264       0.0%    100.0%      0.0%
 flops   288 x   288 x   274         340036227072       0.0%    100.0%      0.0%
 flops   274 x   288 x   288         340036227072       0.0%    100.0%      0.0%
 flops   288 x   274 x   288         340036227072       0.0%    100.0%      0.0%
 flops    26 x     5 x   288         367314554880       0.0%    100.0%      0.0%
 flops     5 x    26 x   288         368813802240       0.0%    100.0%      0.0%
 flops     5 x    26 x    13         388010077780       0.0%    100.0%      0.0%
 flops    13 x    26 x     5         388010077780       0.0%    100.0%      0.0%
 flops    26 x    26 x   256         441847963648       0.0%    100.0%      0.0%
 flops   256 x   282 x   282         461478408192       0.0%    100.0%      0.0%
 flops   282 x   256 x   282         461478408192       0.0%    100.0%      0.0%
 flops   282 x   282 x   256         461478408192       0.0%    100.0%      0.0%
 flops   256 x   282 x   288         471297097728       0.0%    100.0%      0.0%
 flops   256 x   288 x   282         471297097728       0.0%    100.0%      0.0%
 flops   282 x   256 x   288         471297097728       0.0%    100.0%      0.0%
 flops   282 x   288 x   256         471297097728       0.0%    100.0%      0.0%
 flops   288 x   256 x   282         471297097728       0.0%    100.0%      0.0%
 flops   288 x   282 x   256         471297097728       0.0%    100.0%      0.0%
 flops     5 x     5 x   288         472822329600       0.0%    100.0%      0.0%
 flops   256 x   274 x   274         575123001344       0.0%    100.0%      0.0%
 flops   274 x   256 x   274         575123001344       0.0%    100.0%      0.0%
 flops   274 x   274 x   256         575123001344       0.0%    100.0%      0.0%
 flops   256 x   274 x   288         604508848128       0.0%    100.0%      0.0%
 flops   256 x   288 x   274         604508848128       0.0%    100.0%      0.0%
 flops   274 x   256 x   288         604508848128       0.0%    100.0%      0.0%
 flops   274 x   288 x   256         604508848128       0.0%    100.0%      0.0%
 flops   288 x   256 x   274         604508848128       0.0%    100.0%      0.0%
 flops   288 x   274 x   256         604508848128       0.0%    100.0%      0.0%
 flops   288 x   288 x   288         628155482112       0.0%    100.0%      0.0%
 flops    26 x     5 x   256         653003653120       0.0%    100.0%      0.0%
 flops     5 x    26 x   256         655668981760       0.0%    100.0%      0.0%
 flops    26 x    13 x   274         837842241600       0.0%    100.0%      0.0%
 flops   256 x   256 x   282         837861507072       0.0%    100.0%      0.0%
 flops   256 x   282 x   256         837861507072       0.0%    100.0%      0.0%
 flops   282 x   256 x   256         837861507072       0.0%    100.0%      0.0%
 flops     5 x     5 x   256         840573030400       0.0%    100.0%      0.0%
 flops    13 x    26 x   274         842962388632       0.0%    100.0%      0.0%
 flops    26 x    13 x   282         862304788800       0.0%    100.0%      0.0%
 flops    13 x    26 x   282         867574429176       0.0%    100.0%      0.0%
 flops     5 x    13 x   274         969066143500       0.0%    100.0%      0.0%
 flops    13 x     5 x   274         971215454300       0.0%    100.0%      0.0%
 flops     5 x    13 x   282         997360045500       0.0%    100.0%      0.0%
 flops    13 x     5 x   282         999572109900       0.0%    100.0%      0.0%
 flops   256 x   256 x   274        1074682396672       0.0%    100.0%      0.0%
 flops   256 x   274 x   256        1074682396672       0.0%    100.0%      0.0%
 flops   274 x   256 x   256        1074682396672       0.0%    100.0%      0.0%
 flops   288 x   288 x   256        1116720857088       0.0%    100.0%      0.0%
 flops   256 x   288 x   288        1116720857088       0.0%    100.0%      0.0%
 flops   288 x   256 x   288        1116720857088       0.0%    100.0%      0.0%
 flops    13 x    18 x    13        1152009792648       0.0%    100.0%      0.0%
 flops    13 x    26 x    13        1609022988872       0.0%    100.0%      0.0%
 flops    26 x    13 x   288        1761303398400       0.0%    100.0%      0.0%
 flops    13 x    26 x   288        1772066919168       0.0%    100.0%      0.0%
 flops   256 x   256 x   288        1985281523712       0.0%    100.0%      0.0%
 flops   256 x   288 x   256        1985281523712       0.0%    100.0%      0.0%
 flops   288 x   256 x   256        1985281523712       0.0%    100.0%      0.0%
 flops     5 x    13 x   288        2037160944000       0.0%    100.0%      0.0%
 flops    13 x     5 x   288        2041679203200       0.0%    100.0%      0.0%
 flops    26 x    13 x   256        3131206041600       0.0%    100.0%      0.0%
 flops    13 x    26 x   256        3150341189632       0.0%    100.0%      0.0%
 flops   256 x   256 x   256        3529389375488       0.0%    100.0%      0.0%
 flops    26 x    32 x    26        3568331999232       0.0%    100.0%      0.0%
 flops     5 x    13 x   256        3621619456000       0.0%    100.0%      0.0%
 flops    13 x     5 x   256        3629651916800       0.0%    100.0%      0.0%
 flops    13 x    13 x   274        4065859618184       0.0%    100.0%      0.0%
 flops    13 x    13 x   282        4184570847912       0.0%    100.0%      0.0%
 flops   274 x   274 x  1574        5511431263360       0.0%    100.0%      0.0%
 flops    26 x    32 x     5        5785476428160       0.0%    100.0%      0.0%
 flops     5 x    32 x    26        5785476428160       0.0%    100.0%      0.0%
 flops   274 x   288 x  1574        5793037240320       0.0%    100.0%      0.0%
 flops   288 x   274 x  1574        5793037240320       0.0%    100.0%      0.0%
 flops   282 x   282 x  1574        5837964992640       0.0%    100.0%      0.0%
 flops   282 x   288 x  1574        5962177013760       0.0%    100.0%      0.0%
 flops   288 x   282 x  1574        5962177013760       0.0%    100.0%      0.0%
 flops     5 x    32 x     5        7325197862400       0.0%    100.0%      0.0%
 flops  1574 x   274 x   274        7373784537600       0.0%    100.0%      0.0%
 flops  1574 x   288 x   274        7750547251200       0.0%    100.0%      0.0%
 flops  1574 x   274 x   288        7750547251200       0.0%    100.0%      0.0%
 flops  1574 x   282 x   282        7810656422400       0.0%    100.0%      0.0%
 flops  1574 x   288 x   282        7976840601600       0.0%    100.0%      0.0%
 flops  1574 x   282 x   288        7976840601600       0.0%    100.0%      0.0%
 flops    13 x    13 x   288        8547208540416       0.0%    100.0%      0.0%
 flops   256 x   274 x  1574       10298732871680       0.0%    100.0%      0.0%
 flops   274 x   256 x  1574       10298732871680       0.0%    100.0%      0.0%
 flops   256 x   282 x  1574       10599425802240       0.0%    100.0%      0.0%
 flops   282 x   256 x  1574       10599425802240       0.0%    100.0%      0.0%
 flops   288 x   288 x  1574       12178063687680       0.0%    100.0%      0.0%
 flops  1574 x   256 x   274       13778750668800       0.0%    100.0%      0.0%
 flops  1574 x   274 x   256       13778750668800       0.0%    100.0%      0.0%
 flops  1574 x   256 x   282       14181049958400       0.0%    100.0%      0.0%
 flops  1574 x   282 x   256       14181049958400       0.0%    100.0%      0.0%
 flops    13 x    13 x   256       15195037405184       0.0%    100.0%      0.0%
 flops  1574 x   288 x   288       16293121228800       0.0%    100.0%      0.0%
 flops   256 x   288 x  1574       21649891000320       0.0%    100.0%      0.0%
 flops   288 x   256 x  1574       21649891000320       0.0%    100.0%      0.0%
 flops    26 x    32 x    13       27769928554368       0.0%    100.0%      0.0%
 flops    13 x    32 x    26       27769928554368       0.0%    100.0%      0.0%
 flops  1574 x   288 x   256       28965548851200       0.0%    100.0%      0.0%
 flops  1574 x   256 x   288       28965548851200       0.0%    100.0%      0.0%
 flops    13 x    32 x     5       32056954300800       0.0%    100.0%      0.0%
 flops     5 x    32 x    13       32056954300800       0.0%    100.0%      0.0%
 flops   256 x   256 x  1574       38488695111680       0.0%    100.0%      0.0%
 flops  1574 x   256 x   256       51494309068800       0.0%    100.0%      0.0%
 flops  1574 x   274 x  1574       58520440776192       0.0%    100.0%      0.0%
 flops  1574 x   282 x  1574       60229066784256       0.0%    100.0%      0.0%
 flops  1574 x   288 x  1574      123021072580608       0.0%    100.0%      0.0%
 flops    13 x    32 x    13      132935662050048       0.0%    100.0%      0.0%
 flops  1574 x   256 x  1574      218704129032192       0.0%    100.0%      0.0%
 flops inhomo. stacks                           0       0.0%      0.0%      0.0%
 flops total                         1.239131E+15       0.0%    100.0%      0.0%
 flops max/rank                     83.330050E+12       0.0%    100.0%      0.0%
 matmuls inhomo. stacks                         0       0.0%      0.0%      0.0%
 matmuls total                        38465099800       0.0%    100.0%      0.0%
 number of processed stacks              50131033       0.0%    100.0%      0.0%
 average stack size                                     0.0     767.3       0.0
 marketing flops                     2.252482E+15
 -------------------------------------------------------------------------------
 # multiplications                          62319
 max memory usage/rank               2.278502E+09
 # max total images/rank                        1
 # max 3D layers                                1
 # MPI messages exchanged                 5982624
 MPI messages size (bytes):
  total size                        20.077672E+12
  min size                           0.000000E+00
  max size                          19.819808E+06
  average size                       3.355998E+06
 MPI breakdown and total messages size (bytes):
             size <=      128               47784                        0
       128 < size <=     8192                   0                        0
      8192 < size <=    32768                   0                        0
     32768 < size <=   131072                4344                297928896
    131072 < size <=  4194304             5154768           11836123775616
   4194304 < size <= 16777216              517104            3125612619072
  16777216 < size                          258624            5125878024192
 -------------------------------------------------------------------------------
 -                                                                             -
 -                      DBCSR MESSAGE PASSING PERFORMANCE                      -
 -                                                                             -
 -------------------------------------------------------------------------------
 ROUTINE             CALLS      AVE VOLUME [Bytes]
 MP_Group             7376
 MP_Bcast              148                     12.
 MP_Allreduce       309324                     27.
 MP_Alltoall        287261                 771627.
 MP_Wait           2991312
 MP_ISend           995656                1312535.
 MP_IRecv           995656                1299285.
 MP_Memory         2272186
 -------------------------------------------------------------------------------

 MEMORY| Estimated peak process memory [MiB]                                2173

 -------------------------------------------------------------------------------
 ----                             MULTIGRID INFO                            ----
 -------------------------------------------------------------------------------
 count for grid        1:        1657680          cutoff [a.u.]          180.00
 count for grid        2:         393520          cutoff [a.u.]           60.00
 count for grid        3:         224320          cutoff [a.u.]           20.00
 count for grid        4:          22240          cutoff [a.u.]            6.67
 count for grid        5:            640          cutoff [a.u.]            2.22
 total gridlevel count  :        2298400

 -------------------------------------------------------------------------------
 -                                                                             -
 -                         MESSAGE PASSING PERFORMANCE                         -
 -                                                                             -
 -------------------------------------------------------------------------------

 ROUTINE             CALLS      AVE VOLUME [Bytes]
 MP_Group                6
 MP_Bcast             1235                6805059.
 MP_Allreduce           91                  18149.
 MP_Sync                 5
 -------------------------------------------------------------------------------


 -------------------------------------------------------------------------------
 -                                                                             -
 -                           R E F E R E N C E S                               -
 -                                                                             -
 -------------------------------------------------------------------------------
 
 CP2K version 7.1, the CP2K developers group (2019).
 CP2K is freely available from https://www.cp2k.org/ .

 Schuett, Ole; Messmer, Peter; Hutter, Juerg; VandeVondele, Joost. 
 Electronic Structure Calculations on Graphics Processing Units, John
 Wiley & Sons, Ltd, 173-190 (2016). 
 GPU-Accelerated Sparse Matrix-Matrix Multiplication for
 Linear Scaling Density Functional Theory.
 https://dx.doi.org/10.1002/9781118670712.ch8

 Borstnik, U; VandeVondele, J; Weber, V; Hutter, J. 
 PARALLEL COMPUTING, 40 (5-6), 47-58 (2014). 
 Sparse matrix multiplication: The distributed block-compressed sparse
 row library.
 https://dx.doi.org/10.1016/j.parco.2014.03.012

 Hutter, J; Iannuzzi, M; Schiffmann, F; VandeVondele, J. 
 WIREs Comput Mol Sci., 4 (1), 15-25 (2014). 
 CP2K: atomistic simulations of condensed matter systems.
 https://dx.doi.org/10.1002/wcms.1159

 Grimme, S; Ehrlich, S; Goerigk, L. 
 JOURNAL OF COMPUTATIONAL CHEMISTRY, 32, 1456 (2011). 
 Effect of the damping function in dispersion corrected density functional theory.
 https://dx.doi.org/10.1002/jcc.21759

 Grimme, S; Antony, J; Ehrlich, S; Krieg, H. 
 JOURNAL OF CHEMICAL PHYSICS, 132 (15), 154104 (2010). 
 A consistent and accurate ab initio parametrization of density
 functional dispersion correction (DFT-D) for the 94 elements H-Pu.
 https://dx.doi.org/10.1063/1.3382344

 VandeVondele, J; Hutter, J. 
 JOURNAL OF CHEMICAL PHYSICS, 127 (11), 114105 (2007). 
 Gaussian basis sets for accurate calculations on molecular systems in
 gas and condensed phases.
 https://dx.doi.org/10.1063/1.2770708

 Krack, M. 
 THEORETICAL CHEMISTRY ACCOUNTS, 114 (1-3), 145-152 (2005). 
 Pseudopotentials for H to Kr optimized for gradient-corrected
 exchange-correlation functionals.
 https://dx.doi.org/10.1007/s00214-005-0655-y

 VandeVondele, J; Krack, M; Mohamed, F; Parrinello, M; Chassaing, T;
 Hutter, J. COMPUTER PHYSICS COMMUNICATIONS, 167 (2), 103-128 (2005). 
 QUICKSTEP: Fast and accurate density functional calculations using a
 mixed Gaussian and plane waves approach.
 https://dx.doi.org/10.1016/j.cpc.2004.12.014

 Frigo, M; Johnson, SG. 
 PROCEEDINGS OF THE IEEE, 93 (2), 216-231 (2005). 
 The design and implementation of FFTW3.
 https://dx.doi.org/10.1109/JPROC.2004.840301

 Kolafa, J. 
 JOURNAL OF COMPUTATIONAL CHEMISTRY, 25 (3), 335-342 (2004). 
 Time-reversible always stable predictor-corrector method for molecular dynamics of polarizable molecules.
 https://dx.doi.org/10.1002/jcc.10385

 VandeVondele, J; Hutter, J. 
 JOURNAL OF CHEMICAL PHYSICS, 118 (10), 4365-4369 (2003). 
 An efficient orbital transformation method for electronic structure
 calculations.
 https://dx.doi.org/10.1063/1.1543154

 Hartwigsen, C; Goedecker, S; Hutter, J. 
 PHYSICAL REVIEW B, 58 (7), 3641-3662 (1998). 
 Relativistic separable dual-space Gaussian pseudopotentials from H to Rn.
 https://dx.doi.org/10.1103/PhysRevB.58.3641

 Lippert, G; Hutter, J; Parrinello, M. 
 MOLECULAR PHYSICS, 92 (3), 477-487 (1997). 
 A hybrid Gaussian and plane wave density functional scheme.
 https://dx.doi.org/10.1080/002689797170220

 Perdew, JP; Burke, K; Ernzerhof, M. 
 PHYSICAL REVIEW LETTERS, 77 (18), 3865-3868 (1996). 
 Generalized gradient approximation made simple.
 https://dx.doi.org/10.1103/PhysRevLett.77.3865

 Goedecker, S; Teter, M; Hutter, J. 
 PHYSICAL REVIEW B, 54 (3), 1703-1710 (1996). 
 Separable dual-space Gaussian pseudopotentials.
 https://dx.doi.org/10.1103/PhysRevB.54.1703


 -------------------------------------------------------------------------------
 -                                                                             -
 -                                T I M I N G                                  -
 -                                                                             -
 -------------------------------------------------------------------------------
 SUBROUTINE                       CALLS  ASD         SELF TIME        TOTAL TIME
                                MAXIMUM       AVERAGE  MAXIMUM  AVERAGE  MAXIMUM
 CP2K                                 1  1.0     0.02     0.02 75807.31 75807.42
 vb_anal                              1  2.0 75803.52 75803.63 75805.43 75805.55
 -------------------------------------------------------------------------------

 The number of warnings for this run is : 0
 
 -------------------------------------------------------------------------------
  **** **** ******  **  PROGRAM ENDED AT                 2022-05-10 18:23:02.391
 ***** ** ***  *** **   PROGRAM RAN ON             node0148.palmetto.clemson.edu
 **    ****   ******    PROGRAM RAN BY                                   svicchi
 ***** **    ** ** **   PROGRAM PROCESS ID                                372630
  **** **  *******  **  PROGRAM STOPPED IN /zfs/curium/svicchi/00-MOF/02-CP2K/01
                                           -triplet-ni/01-3ni4/00-3ni4-bare/02-b
                                           uilding-up/00-bare/03-tight-adsorptio
                                           n-H-calculations/00-H2-ADSandDIS/20-f
                                           inal_calculations/00-maroon_structure
                                           /freq
