 DBCSR| CPU Multiplication driver                                           XSMM
 DBCSR| Multrec recursion limit                                              512
 DBCSR| Multiplication stack size                                           1000
 DBCSR| Maximum elements for images                                    UNLIMITED
 DBCSR| Multiplicative factor virtual images                                   1
 DBCSR| Use multiplication densification                                       T
 DBCSR| Multiplication size stacks                                             3
 DBCSR| Use memory pool for CPU allocation                                     F
 DBCSR| Number of 3D layers                                               SINGLE
 DBCSR| Use MPI memory allocation                                              F
 DBCSR| Use RMA algorithm                                                      F
 DBCSR| Use Communication thread                                               T
 DBCSR| Communication thread load                                             87
 DBCSR| MPI: My node id                                                        0
 DBCSR| MPI: Number of nodes                                                  16
 DBCSR| OMP: Current number of threads                                         1
 DBCSR| OMP: Max number of threads                                             1
 DBCSR| Split modifier for TAS multiplication algorithm                  1.0E+00


  **** **** ******  **  PROGRAM STARTED AT               2022-12-08 12:27:55.036
 ***** ** ***  *** **   PROGRAM STARTED ON         node0575.palmetto.clemson.edu
 **    ****   ******    PROGRAM STARTED BY                               svicchi
 ***** **    ** ** **   PROGRAM PROCESS ID                               2445195
  **** **  *******  **  PROGRAM STARTED IN   /scratch1/svicchi/CP2K-367296.pbs02

 CP2K| version string:                                          CP2K version 9.1
 CP2K| source code revision number:                                  git:d8d7100
 CP2K| cp2kflags: omp libint fftw3 libxc parallel mpi3 scalapack xsmm           
 CP2K| is freely available from                            https://www.cp2k.org/
 CP2K| Program compiled at                          Mon Aug  8 12:17:03 EDT 2022
 CP2K| Program compiled on                         node0352.palmetto.clemson.edu
 CP2K| Program compiled for                           linux-rocky8-ivybridge-gcc
 CP2K| Data directory path    /software/spackages/linux-rocky8-ivybridge/gcc-9.5
 CP2K| Input file name                                            purple-SPE.inp

 GLOBAL| Force Environment number                                              1
 GLOBAL| Basis set file name                                          BASIS_file
 GLOBAL| Potential file name                                     POTENTIALS_file
 GLOBAL| MM Potential file name                                     MM_POTENTIAL
 GLOBAL| Coordinate file name                                         purple.xyz
 GLOBAL| Method name                                                        CP2K
 GLOBAL| Project name                                            info-purple-SPE
 GLOBAL| Run type                                                         ENERGY
 GLOBAL| FFT library                                                       FFTW3
 GLOBAL| Diagonalization library                                       ScaLAPACK
 GLOBAL| Orthonormality check for eigenvectors                          DISABLED
 GLOBAL| Matrix multiplication library                                 ScaLAPACK
 GLOBAL| All-to-all communication in single precision                          F
 GLOBAL| FFTs using library dependent lengths                                  F
 GLOBAL| Grid backend                                                       AUTO
 GLOBAL| Global print level                                               MEDIUM
 GLOBAL| MPI I/O enabled                                                       T
 GLOBAL| Total number of message passing processes                            16
 GLOBAL| Number of threads for this process                                    1
 GLOBAL| This output is from process                                           0
 GLOBAL| Stack size for threads created by OpenMP (OMP_STACKSIZE)        default
 GLOBAL| CPU model name                Intel(R) Xeon(R) CPU E5-2650 v2 @ 2.60GHz
 GLOBAL| CPUID                                                              1001

 MEMORY| system memory details [Kb]
 MEMORY|                        rank 0           min           max       average
 MEMORY| MemTotal            263811688     263811688     263811688     263811688
 MEMORY| MemFree             115808588     115808588     115808588     115808588
 MEMORY| Buffers                  1776          1776          1776          1776
 MEMORY| Cached              142191932     142191932     142191932     142191932
 MEMORY| Slab                  1179352       1179352       1179352       1179352
 MEMORY| SReclaimable           803300        803300        803300        803300
 MEMORY| MemLikelyFree       258805596     258805596     258805596     258805596


 *** Fundamental physical constants (SI units) ***

 *** Literature: B. J. Mohr and B. N. Taylor,
 ***             CODATA recommended values of the fundamental physical
 ***             constants: 2006, Web Version 5.1
 ***             http://physics.nist.gov/constants

 Speed of light in vacuum [m/s]                             2.99792458000000E+08
 Magnetic constant or permeability of vacuum [N/A**2]       1.25663706143592E-06
 Electric constant or permittivity of vacuum [F/m]          8.85418781762039E-12
 Planck constant (h) [J*s]                                  6.62606896000000E-34
 Planck constant (h-bar) [J*s]                              1.05457162825177E-34
 Elementary charge [C]                                      1.60217648700000E-19
 Electron mass [kg]                                         9.10938215000000E-31
 Electron g factor [ ]                                     -2.00231930436220E+00
 Proton mass [kg]                                           1.67262163700000E-27
 Fine-structure constant                                    7.29735253760000E-03
 Rydberg constant [1/m]                                     1.09737315685270E+07
 Avogadro constant [1/mol]                                  6.02214179000000E+23
 Boltzmann constant [J/K]                                   1.38065040000000E-23
 Atomic mass unit [kg]                                      1.66053878200000E-27
 Bohr radius [m]                                            5.29177208590000E-11

 *** Conversion factors ***

 [u] -> [a.u.]                                              1.82288848426455E+03
 [Angstrom] -> [Bohr] = [a.u.]                              1.88972613288564E+00
 [a.u.] = [Bohr] -> [Angstrom]                              5.29177208590000E-01
 [a.u.] -> [s]                                              2.41888432650478E-17
 [a.u.] -> [fs]                                             2.41888432650478E-02
 [a.u.] -> [J]                                              4.35974393937059E-18
 [a.u.] -> [N]                                              8.23872205491840E-08
 [a.u.] -> [K]                                              3.15774647902944E+05
 [a.u.] -> [kJ/mol]                                         2.62549961709828E+03
 [a.u.] -> [kcal/mol]                                       6.27509468713739E+02
 [a.u.] -> [Pa]                                             2.94210107994716E+13
 [a.u.] -> [bar]                                            2.94210107994716E+08
 [a.u.] -> [atm]                                            2.90362800883016E+08
 [a.u.] -> [eV]                                             2.72113838565563E+01
 [a.u.] -> [Hz]                                             6.57968392072181E+15
 [a.u.] -> [1/cm] (wave numbers)                            2.19474631370540E+05
 [a.u./Bohr**2] -> [1/cm]                                   5.14048714338585E+03
 

 CELL_TOP| Volume [angstrom^3]:                                     22838.217204
 CELL_TOP| Vector a [angstrom    40.611     0.000     0.000   |a| =    40.611054
 CELL_TOP| Vector b [angstrom    20.305    35.170     0.000   |b| =    40.611054
 CELL_TOP| Vector c [angstrom     0.000     0.000    15.990   |c| =    15.989791
 CELL_TOP| Angle (b,c), alpha [degree]:                                90.000000
 CELL_TOP| Angle (a,c), beta  [degree]:                                90.000000
 CELL_TOP| Angle (a,b), gamma [degree]:                                60.000057
 CELL_TOP| Requested initial symmetry:                       MONOCLINIC_GAMMA_AB
 CELL_TOP| Numerically orthorhombic:                                          NO

 CELL| Volume [angstrom^3]:                                         22838.217204
 CELL| Vector a [angstrom]:      40.611     0.000     0.000   |a| =    40.611054
 CELL| Vector b [angstrom]:      20.305    35.170     0.000   |b| =    40.611054
 CELL| Vector c [angstrom]:       0.000     0.000    15.990   |c| =    15.989791
 CELL| Angle (b,c), alpha [degree]:                                    90.000000
 CELL| Angle (a,c), beta  [degree]:                                    90.000000
 CELL| Angle (a,b), gamma [degree]:                                    60.000057
 CELL| Requested initial symmetry:                           MONOCLINIC_GAMMA_AB
 CELL| Numerically orthorhombic:                                              NO

 CELL_REF| Volume [angstrom^3]:                                     22838.217204
 CELL_REF| Vector a [angstrom    40.611     0.000     0.000   |a| =    40.611054
 CELL_REF| Vector b [angstrom    20.305    35.170     0.000   |b| =    40.611054
 CELL_REF| Vector c [angstrom     0.000     0.000    15.990   |c| =    15.989791
 CELL_REF| Angle (b,c), alpha [degree]:                                90.000000
 CELL_REF| Angle (a,c), beta  [degree]:                                90.000000
 CELL_REF| Angle (a,b), gamma [degree]:                                60.000057
 CELL_REF| Requested initial symmetry:                       MONOCLINIC_GAMMA_AB
 CELL_REF| Numerically orthorhombic:                                          NO

 *******************************************************************************
 *******************************************************************************
 **                                                                           **
 **     #####                         ##              ##                      **
 **    ##   ##            ##          ##              ##                      **
 **   ##     ##                       ##            ######                    **
 **   ##     ##  ##   ##  ##   #####  ##  ##   ####   ##    #####    #####    **
 **   ##     ##  ##   ##  ##  ##      ## ##   ##      ##   ##   ##  ##   ##   **
 **   ##  ## ##  ##   ##  ##  ##      ####     ###    ##   ######   ######    **
 **    ##  ###   ##   ##  ##  ##      ## ##      ##   ##   ##       ##        **
 **     #######   #####   ##   #####  ##  ##  ####    ##    #####   ##        **
 **           ##                                                    ##        **
 **                                                                           **
 **                                                ... make the atoms dance   **
 **                                                                           **
 **            Copyright (C) by CP2K developers group (2000-2021)             **
 **                      J. Chem. Phys. 152, 194103 (2020)                    **
 **                                                                           **
 *******************************************************************************

 DFT| Spin unrestricted (spin-polarized) Kohn-Sham calculation               UKS
 DFT| Multiplicity                                                             9
 DFT| Number of spin states                                                    2
 DFT| Charge                                                                   0
 DFT| Self-interaction correction (SIC)                                       NO
 DFT| Cutoffs: density                                              1.000000E-10
 DFT|          gradient                                             1.000000E-10
 DFT|          tau                                                  1.000000E-10
 DFT|          cutoff_smoothing_range                               0.000000E+00
 DFT| XC density smoothing                                                  NONE
 DFT| XC derivatives                                                          PW
 FUNCTIONAL| ROUTINE=NEW
 FUNCTIONAL| PBE:
 FUNCTIONAL| J.P.Perdew, K.Burke, M.Ernzerhof, Phys. Rev. Letter, vol. 77, n 18,
 FUNCTIONAL|  pp. 3865-3868, (1996){spin polarized}                             
 vdW POTENTIAL|                                                   Pair Potential
 vdW POTENTIAL|          DFT-D3 (Version 3.1)
 vdW POTENTIAL|          Potential Form: S. Grimme et al, JCP 132: 154104 (2010)
 vdW POTENTIAL|          BJ Damping: S. Grimme et al, JCC 32: 1456 (2011)
 vdW POTENTIAL|          Cutoff Radius [Bohr]:                             20.00
 vdW POTENTIAL|          s6 Scaling Factor:                               1.0000
 vdW POTENTIAL|          a1 Damping Factor:                               0.4289
 vdW POTENTIAL|          s8 Scaling Factor:                               0.7875
 vdW POTENTIAL|          a2 Damping Factor:                               4.4407
 vdW POTENTIAL|          Cutoff for CN calculation:                   0.1000E-05

 QS| Method:                                                                 GPW
 QS| Density plane wave grid type                        NON-SPHERICAL FULLSPACE
 QS| Number of grid levels:                                                    5
 QS| Density cutoff [a.u.]:                                                180.0
 QS| Multi grid cutoff [a.u.]: 1) grid level                               180.0
 QS|                           2) grid level                                60.0
 QS|                           3) grid level                                20.0
 QS|                           4) grid level                                 6.7
 QS|                           5) grid level                                 2.2
 QS| Grid level progression factor:                                          3.0
 QS| Relative density cutoff [a.u.]:                                        40.0
 QS| Interaction thresholds: eps_pgf_orb:                                1.0E-05
 QS|                         eps_filter_matrix:                          0.0E+00
 QS|                         eps_core_charge:                            1.0E-12
 QS|                         eps_rho_gspace:                             1.0E-10
 QS|                         eps_rho_rspace:                             1.0E-10
 QS|                         eps_gvg_rspace:                             1.0E-05
 QS|                         eps_ppl:                                    1.0E-02
 QS|                         eps_ppnl:                                   1.0E-07


 ATOMIC KIND INFORMATION

  1. Atomic kind: C                                     Number of atoms:     264

     Orbital Basis Set                                     DZVP-MOLOPT-SR-GTH-q4

       Number of orbital shell sets:                                           1
       Number of orbital shells:                                               5
       Number of primitive Cartesian functions:                                5
       Number of Cartesian basis functions:                                   14
       Number of spherical basis functions:                                   13
       Norm type:                                                              2

       Normalised Cartesian orbitals:

                        Set   Shell   Orbital            Exponent    Coefficient

                          1       1    2s                5.605331       0.322515
                                                         2.113016       0.213043
                                                         0.769911      -0.209686
                                                         0.348157      -0.219794
                                                         0.128212      -0.022789

                          1       2    3s                5.605331       0.552234
                                                         2.113016       0.082072
                                                         0.769911       0.007843
                                                         0.348157       0.136893
                                                         0.128212       0.074283

                          1       3    3px               5.605331      -0.703879
                                                         2.113016      -0.642521
                                                         0.769911      -0.374851
                                                         0.348157      -0.139743
                                                         0.128212      -0.027849
                          1       3    3py               5.605331      -0.703879
                                                         2.113016      -0.642521
                                                         0.769911      -0.374851
                                                         0.348157      -0.139743
                                                         0.128212      -0.027849
                          1       3    3pz               5.605331      -0.703879
                                                         2.113016      -0.642521
                                                         0.769911      -0.374851
                                                         0.348157      -0.139743
                                                         0.128212      -0.027849

                          1       4    4px               5.605331      -0.480376
                                                         2.113016      -0.552894
                                                         0.769911      -0.316145
                                                         0.348157       0.210505
                                                         0.128212       0.076095
                          1       4    4py               5.605331      -0.480376
                                                         2.113016      -0.552894
                                                         0.769911      -0.316145
                                                         0.348157       0.210505
                                                         0.128212       0.076095
                          1       4    4pz               5.605331      -0.480376
                                                         2.113016      -0.552894
                                                         0.769911      -0.316145
                                                         0.348157       0.210505
                                                         0.128212       0.076095

                          1       5    4dx2              5.605331       0.640026
                                                         2.113016       0.274300
                                                         0.769911       0.446711
                                                         0.348157       0.028674
                                                         0.128212       0.029790
                          1       5    4dxy              5.605331       1.108557
                                                         2.113016       0.475102
                                                         0.769911       0.773726
                                                         0.348157       0.049666
                                                         0.128212       0.051599
                          1       5    4dxz              5.605331       1.108557
                                                         2.113016       0.475102
                                                         0.769911       0.773726
                                                         0.348157       0.049666
                                                         0.128212       0.051599
                          1       5    4dy2              5.605331       0.640026
                                                         2.113016       0.274300
                                                         0.769911       0.446711
                                                         0.348157       0.028674
                                                         0.128212       0.029790
                          1       5    4dyz              5.605331       1.108557
                                                         2.113016       0.475102
                                                         0.769911       0.773726
                                                         0.348157       0.049666
                                                         0.128212       0.051599
                          1       5    4dz2              5.605331       0.640026
                                                         2.113016       0.274300
                                                         0.769911       0.446711
                                                         0.348157       0.028674
                                                         0.128212       0.029790

       Atomic covalent radius [Angstrom]:                                  0.770

       Atomic van der Waals radius [Angstrom]:                             1.700

     GTH Potential information for                                    GTH-PBE-q4

       Description:                       Goedecker-Teter-Hutter pseudopotential
                                           Goedecker et al., PRB 54, 1703 (1996)
                                          Hartwigsen et al., PRB 58, 3641 (1998)
                                                      Krack, TCA 114, 145 (2005)

       Gaussian exponent of the core charge distribution:               4.364419
       Electronic configuration (s p d ...):                               2   2

       Parameters of the local part of the GTH pseudopotential:

                          rloc        C1          C2          C3          C4
                        0.338471   -8.803674    1.339211

       Parameters of the non-local part of the GTH pseudopotential:

                   l      r(l)      h(i,j,l)

                   0    0.302576    9.622487
                   1    0.291507

  2. Atomic kind: H                                     Number of atoms:     190

     Orbital Basis Set                                     DZVP-MOLOPT-SR-GTH-q1

       Number of orbital shell sets:                                           1
       Number of orbital shells:                                               3
       Number of primitive Cartesian functions:                                5
       Number of Cartesian basis functions:                                    5
       Number of spherical basis functions:                                    5
       Norm type:                                                              2

       Normalised Cartesian orbitals:

                        Set   Shell   Orbital            Exponent    Coefficient

                          1       1    2s               10.068468      -0.133023
                                                         2.680223      -0.177618
                                                         0.791502      -0.258419
                                                         0.239116      -0.107525
                                                         0.082193      -0.014019

                          1       2    3s               10.068468       0.344673
                                                         2.680223       1.819821
                                                         0.791502      -0.999069
                                                         0.239116       0.017430
                                                         0.082193       0.082660

                          1       3    3px              10.068468       0.155326
                                                         2.680223       0.367157
                                                         0.791502       0.311480
                                                         0.239116       0.080105
                                                         0.082193       0.033440
                          1       3    3py              10.068468       0.155326
                                                         2.680223       0.367157
                                                         0.791502       0.311480
                                                         0.239116       0.080105
                                                         0.082193       0.033440
                          1       3    3pz              10.068468       0.155326
                                                         2.680223       0.367157
                                                         0.791502       0.311480
                                                         0.239116       0.080105
                                                         0.082193       0.033440

       Atomic covalent radius [Angstrom]:                                  0.320

       Atomic van der Waals radius [Angstrom]:                             1.090

     GTH Potential information for                                    GTH-PBE-q1

       Description:                       Goedecker-Teter-Hutter pseudopotential
                                           Goedecker et al., PRB 54, 1703 (1996)
                                          Hartwigsen et al., PRB 58, 3641 (1998)
                                                      Krack, TCA 114, 145 (2005)

       Gaussian exponent of the core charge distribution:              12.500000
       Electronic configuration (s p d ...):                                   1

       Parameters of the local part of the GTH pseudopotential:

                          rloc        C1          C2          C3          C4
                        0.200000   -4.178900    0.724463

  3. Atomic kind: Ni                                    Number of atoms:       4

     Orbital Basis Set                                    DZVP-MOLOPT-SR-GTH-q18

       Number of orbital shell sets:                                           1
       Number of orbital shells:                                               8
       Number of primitive Cartesian functions:                                6
       Number of Cartesian basis functions:                                   31
       Number of spherical basis functions:                                   26
       Norm type:                                                              2

       Normalised Cartesian orbitals:

                        Set   Shell   Orbital            Exponent    Coefficient

                          1       1    2s               10.077428      -0.684558
                                                         5.847736      -0.844524
                                                         2.494033       1.088856
                                                         0.988355       0.395503
                                                         0.344978       0.010224
                                                         0.099466      -0.003250

                          1       2    3s               10.077428       0.096747
                                                         5.847736       0.162504
                                                         2.494033      -0.297192
                                                         0.988355      -0.319752
                                                         0.344978       0.088318
                                                         0.099466       0.118587

                          1       3    4s               10.077428       0.036437
                                                         5.847736      -0.381480
                                                         2.494033       0.003759
                                                         0.988355      -1.048256
                                                         0.344978       0.855825
                                                         0.099466      -0.176350

                          1       4    3px              10.077428      -3.133913
                                                         5.847736       3.027656
                                                         2.494033       2.353227
                                                         0.988355       0.554184
                                                         0.344978       0.019462
                                                         0.099466      -0.000291
                          1       4    3py              10.077428      -3.133913
                                                         5.847736       3.027656
                                                         2.494033       2.353227
                                                         0.988355       0.554184
                                                         0.344978       0.019462
                                                         0.099466      -0.000291
                          1       4    3pz              10.077428      -3.133913
                                                         5.847736       3.027656
                                                         2.494033       2.353227
                                                         0.988355       0.554184
                                                         0.344978       0.019462
                                                         0.099466      -0.000291

                          1       5    4px              10.077428      -0.112729
                                                         5.847736      -0.114008
                                                         2.494033      -0.347303
                                                         0.988355      -0.110323
                                                         0.344978       0.154096
                                                         0.099466       0.058386
                          1       5    4py              10.077428      -0.112729
                                                         5.847736      -0.114008
                                                         2.494033      -0.347303
                                                         0.988355      -0.110323
                                                         0.344978       0.154096
                                                         0.099466       0.058386
                          1       5    4pz              10.077428      -0.112729
                                                         5.847736      -0.114008
                                                         2.494033      -0.347303
                                                         0.988355      -0.110323
                                                         0.344978       0.154096
                                                         0.099466       0.058386

                          1       6    4dx2             10.077428       8.232726
                                                         5.847736       9.105758
                                                         2.494033       2.849835
                                                         0.988355       0.554319
                                                         0.344978       0.067245
                                                         0.099466       0.001940
                          1       6    4dxy             10.077428      14.259500
                                                         5.847736      15.771636
                                                         2.494033       4.936060
                                                         0.988355       0.960109
                                                         0.344978       0.116472
                                                         0.099466       0.003360
                          1       6    4dxz             10.077428      14.259500
                                                         5.847736      15.771636
                                                         2.494033       4.936060
                                                         0.988355       0.960109
                                                         0.344978       0.116472
                                                         0.099466       0.003360
                          1       6    4dy2             10.077428       8.232726
                                                         5.847736       9.105758
                                                         2.494033       2.849835
                                                         0.988355       0.554319
                                                         0.344978       0.067245
                                                         0.099466       0.001940
                          1       6    4dyz             10.077428      14.259500
                                                         5.847736      15.771636
                                                         2.494033       4.936060
                                                         0.988355       0.960109
                                                         0.344978       0.116472
                                                         0.099466       0.003360
                          1       6    4dz2             10.077428       8.232726
                                                         5.847736       9.105758
                                                         2.494033       2.849835
                                                         0.988355       0.554319
                                                         0.344978       0.067245
                                                         0.099466       0.001940

                          1       7    5dx2             10.077428      -2.715373
                                                         5.847736      -4.020640
                                                         2.494033      -1.397569
                                                         0.988355      -0.076143
                                                         0.344978       0.033435
                                                         0.099466       0.026032
                          1       7    5dxy             10.077428      -4.703164
                                                         5.847736      -6.963952
                                                         2.494033      -2.420661
                                                         0.988355      -0.131883
                                                         0.344978       0.057911
                                                         0.099466       0.045088
                          1       7    5dxz             10.077428      -4.703164
                                                         5.847736      -6.963952
                                                         2.494033      -2.420661
                                                         0.988355      -0.131883
                                                         0.344978       0.057911
                                                         0.099466       0.045088
                          1       7    5dy2             10.077428      -2.715373
                                                         5.847736      -4.020640
                                                         2.494033      -1.397569
                                                         0.988355      -0.076143
                                                         0.344978       0.033435
                                                         0.099466       0.026032
                          1       7    5dyz             10.077428      -4.703164
                                                         5.847736      -6.963952
                                                         2.494033      -2.420661
                                                         0.988355      -0.131883
                                                         0.344978       0.057911
                                                         0.099466       0.045088
                          1       7    5dz2             10.077428      -2.715373
                                                         5.847736      -4.020640
                                                         2.494033      -1.397569
                                                         0.988355      -0.076143
                                                         0.344978       0.033435
                                                         0.099466       0.026032

                          1       8    5fx3             10.077428      -0.467694
                                                         5.847736       0.618100
                                                         2.494033       0.066069
                                                         0.988355       0.262898
                                                         0.344978       0.004720
                                                         0.099466       0.007748
                          1       8    5fx2y            10.077428      -1.045795
                                                         5.847736       1.382114
                                                         2.494033       0.147734
                                                         0.988355       0.587859
                                                         0.344978       0.010555
                                                         0.099466       0.017325
                          1       8    5fx2z            10.077428      -1.045795
                                                         5.847736       1.382114
                                                         2.494033       0.147734
                                                         0.988355       0.587859
                                                         0.344978       0.010555
                                                         0.099466       0.017325
                          1       8    5fxy2            10.077428      -1.045795
                                                         5.847736       1.382114
                                                         2.494033       0.147734
                                                         0.988355       0.587859
                                                         0.344978       0.010555
                                                         0.099466       0.017325
                          1       8    5fxyz            10.077428      -1.811371
                                                         5.847736       2.393892
                                                         2.494033       0.255883
                                                         0.988355       1.018201
                                                         0.344978       0.018282
                                                         0.099466       0.030008
                          1       8    5fxz2            10.077428      -1.045795
                                                         5.847736       1.382114
                                                         2.494033       0.147734
                                                         0.988355       0.587859
                                                         0.344978       0.010555
                                                         0.099466       0.017325
                          1       8    5fy3             10.077428      -0.467694
                                                         5.847736       0.618100
                                                         2.494033       0.066069
                                                         0.988355       0.262898
                                                         0.344978       0.004720
                                                         0.099466       0.007748
                          1       8    5fy2z            10.077428      -1.045795
                                                         5.847736       1.382114
                                                         2.494033       0.147734
                                                         0.988355       0.587859
                                                         0.344978       0.010555
                                                         0.099466       0.017325
                          1       8    5fyz2            10.077428      -1.045795
                                                         5.847736       1.382114
                                                         2.494033       0.147734
                                                         0.988355       0.587859
                                                         0.344978       0.010555
                                                         0.099466       0.017325
                          1       8    5fz3             10.077428      -0.467694
                                                         5.847736       0.618100
                                                         2.494033       0.066069
                                                         0.988355       0.262898
                                                         0.344978       0.004720
                                                         0.099466       0.007748

       Atomic covalent radius [Angstrom]:                                  1.150

       Atomic van der Waals radius [Angstrom]:                             1.630

     GTH Potential information for                                   GTH-PBE-q18

       Description:                       Goedecker-Teter-Hutter pseudopotential
                                           Goedecker et al., PRB 54, 1703 (1996)
                                          Hartwigsen et al., PRB 58, 3641 (1998)
                                                      Krack, TCA 114, 145 (2005)

       Gaussian exponent of the core charge distribution:               4.081633
       Electronic configuration (s p d ...):                           4   6   8

       Parameters of the local part of the GTH pseudopotential:

                          rloc        C1          C2          C3          C4
                        0.350000    2.102166    0.648484

       Parameters of the non-local part of the GTH pseudopotential:

                   l      r(l)      h(i,j,l)

                   0    0.261295    0.622658    9.970227
                                    9.970227  -12.871507
                   1    0.224253  -11.142708   12.429566
                                   12.429566  -14.706861
                   2    0.215348  -12.628146

  4. Atomic kind: O                                     Number of atoms:     105

     Orbital Basis Set                                     DZVP-MOLOPT-SR-GTH-q6

       Number of orbital shell sets:                                           1
       Number of orbital shells:                                               5
       Number of primitive Cartesian functions:                                5
       Number of Cartesian basis functions:                                   14
       Number of spherical basis functions:                                   13
       Norm type:                                                              2

       Normalised Cartesian orbitals:

                        Set   Shell   Orbital            Exponent    Coefficient

                          1       1    2s               10.389228       0.396646
                                                         3.849621       0.208811
                                                         1.388401      -0.301641
                                                         0.496955      -0.274061
                                                         0.162492      -0.033677

                          1       2    3s               10.389228       0.303673
                                                         3.849621       0.240943
                                                         1.388401      -0.313066
                                                         0.496955      -0.043055
                                                         0.162492       0.213991

                          1       3    3px              10.389228      -1.530415
                                                         3.849621      -1.371928
                                                         1.388401      -0.761951
                                                         0.496955      -0.253695
                                                         0.162492      -0.035541
                          1       3    3py              10.389228      -1.530415
                                                         3.849621      -1.371928
                                                         1.388401      -0.761951
                                                         0.496955      -0.253695
                                                         0.162492      -0.035541
                          1       3    3pz              10.389228      -1.530415
                                                         3.849621      -1.371928
                                                         1.388401      -0.761951
                                                         0.496955      -0.253695
                                                         0.162492      -0.035541

                          1       4    4px              10.389228      -0.565392
                                                         3.849621      -0.038231
                                                         1.388401      -0.382373
                                                         0.496955       0.179070
                                                         0.162492       0.122714
                          1       4    4py              10.389228      -0.565392
                                                         3.849621      -0.038231
                                                         1.388401      -0.382373
                                                         0.496955       0.179070
                                                         0.162492       0.122714
                          1       4    4pz              10.389228      -0.565392
                                                         3.849621      -0.038231
                                                         1.388401      -0.382373
                                                         0.496955       0.179070
                                                         0.162492       0.122714

                          1       5    4dx2             10.389228       1.867377
                                                         3.849621       0.670994
                                                         1.388401       1.353441
                                                         0.496955       0.273538
                                                         0.162492       0.006620
                          1       5    4dxy             10.389228       3.234392
                                                         3.849621       1.162195
                                                         1.388401       2.344229
                                                         0.496955       0.473781
                                                         0.162492       0.011466
                          1       5    4dxz             10.389228       3.234392
                                                         3.849621       1.162195
                                                         1.388401       2.344229
                                                         0.496955       0.473781
                                                         0.162492       0.011466
                          1       5    4dy2             10.389228       1.867377
                                                         3.849621       0.670994
                                                         1.388401       1.353441
                                                         0.496955       0.273538
                                                         0.162492       0.006620
                          1       5    4dyz             10.389228       3.234392
                                                         3.849621       1.162195
                                                         1.388401       2.344229
                                                         0.496955       0.473781
                                                         0.162492       0.011466
                          1       5    4dz2             10.389228       1.867377
                                                         3.849621       0.670994
                                                         1.388401       1.353441
                                                         0.496955       0.273538
                                                         0.162492       0.006620

       Atomic covalent radius [Angstrom]:                                  0.730

       Atomic van der Waals radius [Angstrom]:                             1.520

     GTH Potential information for                                    GTH-PBE-q6

       Description:                       Goedecker-Teter-Hutter pseudopotential
                                           Goedecker et al., PRB 54, 1703 (1996)
                                          Hartwigsen et al., PRB 58, 3641 (1998)
                                                      Krack, TCA 114, 145 (2005)

       Gaussian exponent of the core charge distribution:               8.360253
       Electronic configuration (s p d ...):                               2   4

       Parameters of the local part of the GTH pseudopotential:

                          rloc        C1          C2          C3          C4
                        0.244554  -16.667215    2.487311

       Parameters of the non-local part of the GTH pseudopotential:

                   l      r(l)      h(i,j,l)

                   0    0.220956   18.337458
                   1    0.211332

  5. Atomic kind: Zr                                    Number of atoms:      18

     Orbital Basis Set                                    DZVP-MOLOPT-SR-GTH-q12

       Number of orbital shell sets:                                           1
       Number of orbital shells:                                               8
       Number of primitive Cartesian functions:                                7
       Number of Cartesian basis functions:                                   31
       Number of spherical basis functions:                                   26
       Norm type:                                                              2

       Normalised Cartesian orbitals:

                        Set   Shell   Orbital            Exponent    Coefficient

                          1       1    2s                7.568386      -0.292925
                                                         2.940870       1.053802
                                                         1.478550      -0.194175
                                                         0.699653      -0.477593
                                                         0.314575      -0.092850
                                                         0.129869       0.000474
                                                         0.046851      -0.000485

                          1       2    3s                7.568386      -0.107602
                                                         2.940870       0.453694
                                                         1.478550      -0.133469
                                                         0.699653      -0.242646
                                                         0.314575      -0.112324
                                                         0.129869       0.079936
                                                         0.046851       0.057275

                          1       3    4s                7.568386      -0.039443
                                                         2.940870      -0.239516
                                                         1.478550       0.462939
                                                         0.699653       0.054202
                                                         0.314575       0.378792
                                                         0.129869      -0.467495
                                                         0.046851       0.135277

                          1       4    3px               7.568386      -0.367032
                                                         2.940870       1.199938
                                                         1.478550      -0.729727
                                                         0.699653      -0.527717
                                                         0.314575      -0.102074
                                                         0.129869      -0.002163
                                                         0.046851      -0.000016
                          1       4    3py               7.568386      -0.367032
                                                         2.940870       1.199938
                                                         1.478550      -0.729727
                                                         0.699653      -0.527717
                                                         0.314575      -0.102074
                                                         0.129869      -0.002163
                                                         0.046851      -0.000016
                          1       4    3pz               7.568386      -0.367032
                                                         2.940870       1.199938
                                                         1.478550      -0.729727
                                                         0.699653      -0.527717
                                                         0.314575      -0.102074
                                                         0.129869      -0.002163
                                                         0.046851      -0.000016

                          1       5    4px               7.568386      -0.041149
                                                         2.940870       0.296409
                                                         1.478550      -0.285807
                                                         0.699653      -0.254468
                                                         0.314575       0.008755
                                                         0.129869       0.053085
                                                         0.046851       0.019526
                          1       5    4py               7.568386      -0.041149
                                                         2.940870       0.296409
                                                         1.478550      -0.285807
                                                         0.699653      -0.254468
                                                         0.314575       0.008755
                                                         0.129869       0.053085
                                                         0.046851       0.019526
                          1       5    4pz               7.568386      -0.041149
                                                         2.940870       0.296409
                                                         1.478550      -0.285807
                                                         0.699653      -0.254468
                                                         0.314575       0.008755
                                                         0.129869       0.053085
                                                         0.046851       0.019526

                          1       6    4dx2              7.568386      -0.104612
                                                         2.940870      -0.141339
                                                         1.478550       0.540679
                                                         0.699653       0.284252
                                                         0.314575       0.094561
                                                         0.129869       0.012195
                                                         0.046851       0.000412
                          1       6    4dxy              7.568386      -0.181193
                                                         2.940870      -0.244806
                                                         1.478550       0.936483
                                                         0.699653       0.492339
                                                         0.314575       0.163785
                                                         0.129869       0.021122
                                                         0.046851       0.000713
                          1       6    4dxz              7.568386      -0.181193
                                                         2.940870      -0.244806
                                                         1.478550       0.936483
                                                         0.699653       0.492339
                                                         0.314575       0.163785
                                                         0.129869       0.021122
                                                         0.046851       0.000713
                          1       6    4dy2              7.568386      -0.104612
                                                         2.940870      -0.141339
                                                         1.478550       0.540679
                                                         0.699653       0.284252
                                                         0.314575       0.094561
                                                         0.129869       0.012195
                                                         0.046851       0.000412
                          1       6    4dyz              7.568386      -0.181193
                                                         2.940870      -0.244806
                                                         1.478550       0.936483
                                                         0.699653       0.492339
                                                         0.314575       0.163785
                                                         0.129869       0.021122
                                                         0.046851       0.000713
                          1       6    4dz2              7.568386      -0.104612
                                                         2.940870      -0.141339
                                                         1.478550       0.540679
                                                         0.699653       0.284252
                                                         0.314575       0.094561
                                                         0.129869       0.012195
                                                         0.046851       0.000412

                          1       7    5dx2              7.568386      -0.107600
                                                         2.940870       0.230973
                                                         1.478550      -0.200541
                                                         0.699653      -0.193347
                                                         0.314575       0.007888
                                                         0.129869       0.006706
                                                         0.046851       0.006900
                          1       7    5dxy              7.568386      -0.186369
                                                         2.940870       0.400056
                                                         1.478550      -0.347346
                                                         0.699653      -0.334887
                                                         0.314575       0.013663
                                                         0.129869       0.011615
                                                         0.046851       0.011951
                          1       7    5dxz              7.568386      -0.186369
                                                         2.940870       0.400056
                                                         1.478550      -0.347346
                                                         0.699653      -0.334887
                                                         0.314575       0.013663
                                                         0.129869       0.011615
                                                         0.046851       0.011951
                          1       7    5dy2              7.568386      -0.107600
                                                         2.940870       0.230973
                                                         1.478550      -0.200541
                                                         0.699653      -0.193347
                                                         0.314575       0.007888
                                                         0.129869       0.006706
                                                         0.046851       0.006900
                          1       7    5dyz              7.568386      -0.186369
                                                         2.940870       0.400056
                                                         1.478550      -0.347346
                                                         0.699653      -0.334887
                                                         0.314575       0.013663
                                                         0.129869       0.011615
                                                         0.046851       0.011951
                          1       7    5dz2              7.568386      -0.107600
                                                         2.940870       0.230973
                                                         1.478550      -0.200541
                                                         0.699653      -0.193347
                                                         0.314575       0.007888
                                                         0.129869       0.006706
                                                         0.046851       0.006900

                          1       8    5fx3              7.568386       0.371480
                                                         2.940870      -0.155968
                                                         1.478550      -0.211323
                                                         0.699653      -0.255968
                                                         0.314575      -0.046738
                                                         0.129869      -0.005674
                                                         0.046851       0.000171
                          1       8    5fx2y             7.568386       0.830655
                                                         2.940870      -0.348756
                                                         1.478550      -0.472533
                                                         0.699653      -0.572361
                                                         0.314575      -0.104510
                                                         0.129869      -0.012687
                                                         0.046851       0.000382
                          1       8    5fx2z             7.568386       0.830655
                                                         2.940870      -0.348756
                                                         1.478550      -0.472533
                                                         0.699653      -0.572361
                                                         0.314575      -0.104510
                                                         0.129869      -0.012687
                                                         0.046851       0.000382
                          1       8    5fxy2             7.568386       0.830655
                                                         2.940870      -0.348756
                                                         1.478550      -0.472533
                                                         0.699653      -0.572361
                                                         0.314575      -0.104510
                                                         0.129869      -0.012687
                                                         0.046851       0.000382
                          1       8    5fxyz             7.568386       1.438737
                                                         2.940870      -0.604063
                                                         1.478550      -0.818452
                                                         0.699653      -0.991359
                                                         0.314575      -0.181017
                                                         0.129869      -0.021975
                                                         0.046851       0.000662
                          1       8    5fxz2             7.568386       0.830655
                                                         2.940870      -0.348756
                                                         1.478550      -0.472533
                                                         0.699653      -0.572361
                                                         0.314575      -0.104510
                                                         0.129869      -0.012687
                                                         0.046851       0.000382
                          1       8    5fy3              7.568386       0.371480
                                                         2.940870      -0.155968
                                                         1.478550      -0.211323
                                                         0.699653      -0.255968
                                                         0.314575      -0.046738
                                                         0.129869      -0.005674
                                                         0.046851       0.000171
                          1       8    5fy2z             7.568386       0.830655
                                                         2.940870      -0.348756
                                                         1.478550      -0.472533
                                                         0.699653      -0.572361
                                                         0.314575      -0.104510
                                                         0.129869      -0.012687
                                                         0.046851       0.000382
                          1       8    5fyz2             7.568386       0.830655
                                                         2.940870      -0.348756
                                                         1.478550      -0.472533
                                                         0.699653      -0.572361
                                                         0.314575      -0.104510
                                                         0.129869      -0.012687
                                                         0.046851       0.000382
                          1       8    5fz3              7.568386       0.371480
                                                         2.940870      -0.155968
                                                         1.478550      -0.211323
                                                         0.699653      -0.255968
                                                         0.314575      -0.046738
                                                         0.129869      -0.005674
                                                         0.046851       0.000171

       Atomic covalent radius [Angstrom]:                                  1.450

       Atomic van der Waals radius [Angstrom]:                             1.920

     GTH Potential information for                                   GTH-PBE-q12

       Description:                       Goedecker-Teter-Hutter pseudopotential
                                           Goedecker et al., PRB 54, 1703 (1996)
                                          Hartwigsen et al., PRB 58, 3641 (1998)
                                                      Krack, TCA 114, 145 (2005)

       Gaussian exponent of the core charge distribution:               2.263468
       Electronic configuration (s p d ...):                           4   6   2

       Parameters of the local part of the GTH pseudopotential:

                          rloc        C1          C2          C3          C4
                        0.470000    7.796057   -1.893210

       Parameters of the non-local part of the GTH pseudopotential:

                   l      r(l)      h(i,j,l)

                   0    0.259829   23.380874   -8.571939
                                   -8.571939   11.066326
                   1    0.288969    8.592766   -5.377358
                                   -5.377358    6.362576
                   2    0.581245    0.027811    0.276862
                                    0.276862   -0.313932


 MOLECULE KIND INFORMATION


 All atoms are their own molecule, skipping detailed information


 TOTAL NUMBERS AND MAXIMUM NUMBERS

  Total number of            - Atomic kinds:                                   5
                             - Atoms:                                        581
                             - Shell sets:                                   581
                             - Shells:                                      2591
                             - Primitive Cartesian functions:               2945
                             - Cartesian basis functions:                   6798
                             - Spherical basis functions:                   6319

  Maximum angular momentum of- Orbital basis functions:                        3
                             - Local part of the GTH pseudopotential:          2
                             - Non-local part of the GTH pseudopotential:      4


 MODULE QUICKSTEP:  ATOMIC COORDINATES IN angstrom

 Atom  Kind  Element       X           Y           Z          Z(eff)       Mass
    1   1 C    6      11.858819   14.053523   13.736413       4.0000     12.0107
    2   1 C    6      12.456344   12.890631   13.018150       4.0000     12.0107
    3   1 C    6      11.704726   12.171796   12.076353       4.0000     12.0107
    4   1 C    6      12.281132   11.109616   11.384011       4.0000     12.0107
    5   1 C    6      13.621678   10.739764   11.611852       4.0000     12.0107
    6   1 C    6      14.354770   11.443232   12.585450       4.0000     12.0107
    7   1 C    6      13.781854   12.508195   13.276953       4.0000     12.0107
    8   1 C    6      14.261192    9.649089   10.838482       4.0000     12.0107
    9   1 C    6      14.256492    9.657040    9.416789       4.0000     12.0107
   10   1 C    6      13.743457   10.759217    8.662871       4.0000     12.0107
   11   1 C    6      49.126880   21.233243   13.874530       4.0000     12.0107
   12   1 C    6      48.550172   22.401195   13.147481       4.0000     12.0107
   13   1 C    6      49.300170   23.068446   12.166404       4.0000     12.0107
   14   1 C    6      48.733228   24.107595   11.433231       4.0000     12.0107
   15   1 C    6      47.402717   24.509317   11.661938       4.0000     12.0107
   16   1 C    6      46.671815   23.860523   12.675546       4.0000     12.0107
   17   1 C    6      47.234268   22.815607   13.404873       4.0000     12.0107
   18   1 C    6      46.772453   25.586997   10.864675       4.0000     12.0107
   19   1 C    6      46.761463   25.557375    9.442916       4.0000     12.0107
   20   1 C    6      47.261382   24.442282    8.699410       4.0000     12.0107
   21   1 C    6      14.860373    8.570681    8.703515       4.0000     12.0107
   22   1 C    6      14.891932    8.597107   11.515115       4.0000     12.0107
   23   1 C    6      49.113308   21.203537    2.150459       4.0000     12.0107
   24   1 C    6      48.528029   22.364942    2.877564       4.0000     12.0107
   25   1 C    6      49.267168   23.025429    3.870700       4.0000     12.0107
   26   1 C    6      48.690853   24.059983    4.602167       4.0000     12.0107
   27   1 C    6      47.360552   24.457024    4.363716       4.0000     12.0107
   28   1 C    6      46.640273   23.812384    3.339918       4.0000     12.0107
   29   1 C    6      47.213802   22.776480    2.608125       4.0000     12.0107
   30   1 C    6      46.722074   25.531948    5.154761       4.0000     12.0107
   31   1 C    6      46.733760   25.528233    6.576466       4.0000     12.0107
   32   1 C    6      47.249127   24.428991    7.332858       4.0000     12.0107
   33   1 C    6      40.634639   17.134857    7.331572       4.0000     12.0107
   34   1 C    6      40.653913   17.172684    4.522515       4.0000     12.0107
   35   1 C    6      11.883016   14.086548    2.290623       4.0000     12.0107
   36   1 C    6      12.472311   12.910739    2.994784       4.0000     12.0107
   37   1 C    6      11.714915   12.177730    3.921150       4.0000     12.0107
   38   1 C    6      12.281527   11.095294    4.589555       4.0000     12.0107
   39   1 C    6      13.620267   10.721390    4.357508       4.0000     12.0107
   40   1 C    6      14.358095   11.436741    3.396432       4.0000     12.0107
   41   1 C    6      13.792653   12.517902    2.723747       4.0000     12.0107
   42   1 C    6      14.253880    9.624659    5.127909       4.0000     12.0107
   43   1 C    6      14.252639    9.644678    6.549744       4.0000     12.0107
   44   1 C    6      13.742891   10.753680    7.296827       4.0000     12.0107
   45   1 C    6      22.511947    3.244036   13.748321       4.0000     12.0107
   46   1 C    6      23.227083    4.348851   13.049234       4.0000     12.0107
   47   1 C    6      24.223585    4.068043   12.102806       4.0000     12.0107
   48   1 C    6      24.850816    5.107203   11.420524       4.0000     12.0107
   49   1 C    6      24.497137    6.448988   11.664896       4.0000     12.0107
   50   1 C    6      23.529197    6.721360   12.648684       4.0000     12.0107
   51   1 C    6      22.897186    5.684034   13.329215       4.0000     12.0107
   52   1 C    6      25.102022    7.555347   10.888823       4.0000     12.0107
   53   1 C    6      25.070319    7.549673    9.467538       4.0000     12.0107
   54   1 C    6      24.366730    6.550854    8.722105       4.0000     12.0107
   55   1 C    6      38.303178   31.929420   13.843910       4.0000     12.0107
   56   1 C    6      37.575211   30.838995   13.134446       4.0000     12.0107
   57   1 C    6      36.618312   31.140769   12.153511       4.0000     12.0107
   58   1 C    6      36.003777   30.118795   11.435321       4.0000     12.0107
   59   1 C    6      36.331123   28.770197   11.677027       4.0000     12.0107
   60   1 C    6      37.257972   28.475975   12.694678       4.0000     12.0107
   61   1 C    6      37.876968   29.496605   13.411316       4.0000     12.0107
   62   1 C    6      35.731508   27.677081   10.879882       4.0000     12.0107
   63   1 C    6      35.765194   27.691218    9.458699       4.0000     12.0107
   64   1 C    6      36.472865   28.692649    8.721854       4.0000     12.0107
   65   1 C    6      25.690934    8.620739    8.747466       4.0000     12.0107
   66   1 C    6      25.701891    8.628779   11.559233       4.0000     12.0107
   67   1 C    6      38.329167   31.962230    2.161352       4.0000     12.0107
   68   1 C    6      37.608963   30.888476    2.903376       4.0000     12.0107
   69   1 C    6      36.683446   31.195884    3.912308       4.0000     12.0107
   70   1 C    6      36.075699   30.176273    4.642209       4.0000     12.0107
   71   1 C    6      36.379058   28.824053    4.386273       4.0000     12.0107
   72   1 C    6      37.281882   28.526735    3.347093       4.0000     12.0107
   73   1 C    6      37.891984   29.542764    2.618699       4.0000     12.0107
   74   1 C    6      35.773213   27.723872    5.170235       4.0000     12.0107
   75   1 C    6      35.786299   27.715313    6.592131       4.0000     12.0107
   76   1 C    6      36.482641   28.704469    7.355342       4.0000     12.0107
   77   1 C    6      46.135689   26.620830    7.286608       4.0000     12.0107
   78   1 C    6      46.088126   26.580327    4.478728       4.0000     12.0107
   79   1 C    6      22.459800    3.255858    2.262880       4.0000     12.0107
   80   1 C    6      23.151267    4.365364    2.986450       4.0000     12.0107
   81   1 C    6      24.153356    4.081063    3.927715       4.0000     12.0107
   82   1 C    6      24.778648    5.112456    4.624095       4.0000     12.0107
   83   1 C    6      24.421944    6.457593    4.401683       4.0000     12.0107
   84   1 C    6      23.442903    6.735162    3.428948       4.0000     12.0107
   85   1 C    6      22.812914    5.704038    2.733100       4.0000     12.0107
   86   1 C    6      25.050763    7.556545    5.175987       4.0000     12.0107
   87   1 C    6      25.044476    7.549757    6.598747       4.0000     12.0107
   88   1 C    6      24.352524    6.551924    7.355492       4.0000     12.0107
   89   1 C    6      26.620024   17.859988   13.779695       4.0000     12.0107
   90   1 C    6      25.311636   17.903523   13.052698       4.0000     12.0107
   91   1 C    6      25.050439   18.906905   12.106155       4.0000     12.0107
   92   1 C    6      23.837831   18.929739   11.419060       4.0000     12.0107
   93   1 C    6      22.849861   17.952148   11.657219       4.0000     12.0107
   94   1 C    6      23.108088   16.970704   12.632243       4.0000     12.0107
   95   1 C    6      24.322839   16.943042   13.316843       4.0000     12.0107
   96   1 C    6      21.576085   17.940884   10.893494       4.0000     12.0107
   97   1 C    6      21.575735   17.920624    9.471205       4.0000     12.0107
[...]
 flops   256 x   288 x  1582         825794887680       0.0%    100.0%      0.0%
 flops   288 x   256 x  1582         825794887680       0.0%    100.0%      0.0%
 flops  1579 x   278 x   278         905717317992       0.0%    100.0%      0.0%
 flops  1579 x   278 x   288         938297077632       0.0%    100.0%      0.0%
 flops  1579 x   288 x   278         938297077632       0.0%    100.0%      0.0%
 flops  1579 x   286 x   286         958594971048       0.0%    100.0%      0.0%
 flops  1579 x   286 x   288         965298432384       0.0%    100.0%      0.0%
 flops  1579 x   288 x   286         965298432384       0.0%    100.0%      0.0%
 flops  1582 x   288 x  1582        1026397145088       0.0%    100.0%      0.0%
 flops   256 x   256 x   256        1040992698368       0.0%    100.0%      0.0%
 flops  1582 x   288 x   256        1154246639616       0.0%    100.0%      0.0%
 flops  1582 x   256 x   288        1154246639616       0.0%    100.0%      0.0%
 flops   256 x   278 x  1579        1193414768640       0.0%    100.0%      0.0%
 flops   278 x   256 x  1579        1193414768640       0.0%    100.0%      0.0%
 flops    13 x    13 x   288        1210640850432       0.0%    100.0%      0.0%
 flops   256 x   286 x  1579        1227757639680       0.0%    100.0%      0.0%
 flops   286 x   256 x  1579        1227757639680       0.0%    100.0%      0.0%
 flops   288 x   288 x  1579        1390886277120       0.0%    100.0%      0.0%
 flops   256 x   256 x  1582        1468079800320       0.0%    100.0%      0.0%
 flops  1579 x   278 x  1582        1483319320224       0.0%    100.0%      0.0%
 flops  1582 x   278 x  1579        1483319320224       0.0%    100.0%      0.0%
 flops  1579 x   286 x  1582        1526004768288       0.0%    100.0%      0.0%
 flops  1582 x   286 x  1579        1526004768288       0.0%    100.0%      0.0%
 flops  1579 x   256 x   278        1668083693568       0.0%    100.0%      0.0%
 flops  1579 x   278 x   256        1668083693568       0.0%    100.0%      0.0%
 flops  1579 x   256 x   286        1716086102016       0.0%    100.0%      0.0%
 flops  1579 x   286 x   256        1716086102016       0.0%    100.0%      0.0%
 flops  1582 x   256 x  1582        1824706035712       0.0%    100.0%      0.0%
 flops  1579 x   288 x   288        1944097542144       0.0%    100.0%      0.0%
 flops  1582 x   256 x   256        2051994025984       0.0%    100.0%      0.0%
 flops    13 x    13 x   256        2152250400768       0.0%    100.0%      0.0%
 flops   256 x   288 x  1579        2472686714880       0.0%    100.0%      0.0%
 flops   288 x   256 x  1579        2472686714880       0.0%    100.0%      0.0%
 flops    26 x    32 x    13        2783907764352       0.0%    100.0%      0.0%
 flops    13 x    32 x    26        2783907764352       0.0%    100.0%      0.0%
 flops  1582 x   288 x  1579        3073352260608       0.0%    100.0%      0.0%
 flops  1579 x   288 x  1582        3073352260608       0.0%    100.0%      0.0%
 flops    13 x    32 x     5        3253303722240       0.0%    100.0%      0.0%
 flops     5 x    32 x    13        3253303722240       0.0%    100.0%      0.0%
 flops  1579 x   256 x   288        3456173408256       0.0%    100.0%      0.0%
 flops  1579 x   288 x   256        3456173408256       0.0%    100.0%      0.0%
 flops   256 x   256 x  1579        4395887493120       0.0%    100.0%      0.0%
 flops  1579 x   278 x  1579        4441519355184       0.0%    100.0%      0.0%
 flops  1579 x   286 x  1579        4569332861808       0.0%    100.0%      0.0%
 flops  1579 x   256 x  1582        5463737352192       0.0%    100.0%      0.0%
 flops  1582 x   256 x  1579        5463737352192       0.0%    100.0%      0.0%
 flops  1579 x   256 x   256        6144308281344       0.0%    100.0%      0.0%
 flops  1579 x   288 x  1579        9202572476928       0.0%    100.0%      0.0%
 flops    13 x    32 x    13       13363295444928       0.0%    100.0%      0.0%
 flops  1579 x   256 x  1579       16360128847872       0.0%    100.0%      0.0%
 flops inhomo. stacks                           0       0.0%      0.0%      0.0%
 flops total                       171.930160E+12       0.0%    100.0%      0.0%
 flops max/rank                     11.552861E+12       0.0%    100.0%      0.0%
 matmuls inhomo. stacks                         0       0.0%      0.0%      0.0%
 matmuls total                         3933724806       0.0%    100.0%      0.0%
 number of processed stacks               5440379       0.0%    100.0%      0.0%
 average stack size                                     0.0     723.1       0.0
 marketing flops                   288.421919E+12
 -------------------------------------------------------------------------------
 # multiplications                          10623
 max memory usage/rank               1.887998E+09
 # max total images/rank                        1
 # max 3D layers                                1
 # MPI messages exchanged                 1019808
 MPI messages size (bytes):
  total size                         2.797853E+12
  min size                           0.000000E+00
  max size                          20.021792E+06
  average size                       2.743510E+06
 MPI breakdown and total messages size (bytes):
             size <=      128                 264                        0
       128 < size <=     8192                   0                        0
      8192 < size <=    32768                   0                        0
     32768 < size <=   131072                  24                  1655232
    131072 < size <=  4194304              933648            1800529892208
   4194304 < size <= 16777216               51696             314894888424
  16777216 < size                           34176             682319755968
 -------------------------------------------------------------------------------
 -                                                                             -
 -                      DBCSR MESSAGE PASSING PERFORMANCE                      -
 -                                                                             -
 -------------------------------------------------------------------------------
 ROUTINE             CALLS      AVE VOLUME [Bytes]
 MP_Bcast              191                     12.
 MP_Allreduce        54890                    119.
 MP_Alltoall         38107                 218553.
 MP_ISend           169960                1072127.
 MP_IRecv           169960                1058857.
 -------------------------------------------------------------------------------

 -------------------------------------------------------------------------------
 -                                                                             -
 -                                GRID STATISTICS                              -
 -                                                                             -
 -------------------------------------------------------------------------------
 LP    KERNEL             BACKEND                              COUNT     PERCENT
 4     collocate general  REF                               95950284      26.59%
 3     collocate general  REF                               89680944      24.85%
 4     integrate general  REF                               47975142      13.29%
 3     integrate general  REF                               44840472      12.43%
 2     collocate general  REF                               28847460       7.99%
 5     collocate general  REF                               23572860       6.53%
 2     integrate general  REF                               14423730       4.00%
 5     integrate general  REF                               11786430       3.27%
 6     collocate general  REF                                2507028       0.69%
 6     integrate general  REF                                1253514       0.35%
 0     collocate general  REF                                  18592       0.01%
 0     integrate general  REF                                  18592       0.01%
 -------------------------------------------------------------------------------

 MEMORY| Estimated peak process memory [MiB]                                1802

 -------------------------------------------------------------------------------
 ----                             MULTIGRID INFO                            ----
 -------------------------------------------------------------------------------
 count for grid        1:        1785661          cutoff [a.u.]          180.00
 count for grid        2:         484854          cutoff [a.u.]           60.00
 count for grid        3:         333931          cutoff [a.u.]           20.00
 count for grid        4:          33204          cutoff [a.u.]            6.67
 count for grid        5:            640          cutoff [a.u.]            2.22
 total gridlevel count  :        2638290

 -------------------------------------------------------------------------------
 -                                                                             -
 -                         MESSAGE PASSING PERFORMANCE                         -
 -                                                                             -
 -------------------------------------------------------------------------------

 ROUTINE             CALLS      AVE VOLUME [Bytes]
 MP_Group                5
 MP_Bcast            46782                 181092.
 MP_Allreduce       116534                    962.
 MP_Sync               717
 MP_Alltoall         10808               94984593.
 MP_ISendRecv        47790                 338731.
 MP_Wait             71198
 MP_ISend            17024                6047770.
 MP_IRecv            17024                6048381.
 MP_Recv              1116                1617664.
 -------------------------------------------------------------------------------


 -------------------------------------------------------------------------------
 -                                                                             -
 -                           R E F E R E N C E S                               -
 -                                                                             -
 -------------------------------------------------------------------------------
 
 CP2K version 9.1, the CP2K developers group (2021).
 CP2K is freely available from https://www.cp2k.org/ .

 Kuehne,Thomas D.; Iannuzzi,Marcella; Del Ben,Mauro;
 Rybkin,Vladimir V.; Seewald,Patrick; Stein,Frederick; Laino,Teodoro;
 Khaliullin,Rustam Z.; Schuett,Ole; Schiffmann,Florian; Golze,Dorothea;
 Wilhelm,Jan; Chulkov,Sergey; Bani-Hashemian,Mohammad Hossein;
 Weber,Valery; Borstnik,Urban; Taillefumier,Mathieu;
 Jakobovits,Alice Shoshana; Lazzaro,Alfio; Pabst,Hans; Mueller,Tiziano;
 Schade,Robert; Guidon,Manuel; Andermatt,Samuel; Holmberg,Nico;
 Schenter,Gregory K.; Hehn,Anna; Bussy,Augustin; Belleflamme,Fabian;
 Tabacchi,Gloria; Gloess,Andreas; Lass,Michael; Bethune,Iain;
 Mundy,Christopher J.; Plessl,Christian; Watkins,Matt;
 VandeVondele,Joost; Krack,Matthias; Hutter,Juerg. 
 The Journal of Chemical Physics, 152 (19), (2020). 
 CP2K: An electronic structure and molecular dynamics software package -
 Quickstep: Efficient and accurate electronic structure calculations.
 https://doi.org/10.1063/5.0007045

 Goerigk, Lars; Hansen, Andreas; Bauer, Christoph; Ehrlich, Stephan;
 Najibi, Asim; Grimme, Stefan. , 19 (48), (2017). 
 A look at the density functional theory zoo with the advanced GMTKN55 database
 for general main group thermochemistry, kinetics and noncovalent interactions.
 https://doi.org/10.1039/C7CP04913G

 Schuett, Ole; Messmer, Peter; Hutter, Juerg; VandeVondele, Joost. 
 Electronic Structure Calculations on Graphics Processing Units, John
 Wiley & Sons, Ltd, 173-190 (2016). 
 GPU-Accelerated Sparse Matrix-Matrix Multiplication for
 Linear Scaling Density Functional Theory.
 https://doi.org/10.1002/9781118670712.ch8

 Heinecke, A; Henry, G; Hutchinson, M; Pabst, H. 
 Proceedings of Intl. Supercomputing Conference, 981-991 (2016). 
 LIBXSMM: Accelerating Small Matrix Multiplications
 by Runtime Code Generation.
 https://doi.org/10.1109/SC.2016.83

 Borstnik, U; VandeVondele, J; Weber, V; Hutter, J. 
 PARALLEL COMPUTING, 40 (5-6), 47-58 (2014). 
 Sparse matrix multiplication: The distributed block-compressed sparse
 row library.
 https://doi.org/10.1016/j.parco.2014.03.012

 Hutter, J; Iannuzzi, M; Schiffmann, F; VandeVondele, J. 
 WIREs Comput Mol Sci., 4 (1), 15-25 (2014). 
 CP2K: atomistic simulations of condensed matter systems.
 https://doi.org/10.1002/wcms.1159

 Grimme, S; Ehrlich, S; Goerigk, L. 
 JOURNAL OF COMPUTATIONAL CHEMISTRY, 32, 1456 (2011). 
 Effect of the damping function in dispersion corrected density functional theory.
 https://doi.org/10.1002/jcc.21759

 Grimme, S; Antony, J; Ehrlich, S; Krieg, H. 
 JOURNAL OF CHEMICAL PHYSICS, 132 (15), 154104 (2010). 
 A consistent and accurate ab initio parametrization of density
 functional dispersion correction (DFT-D) for the 94 elements H-Pu.
 https://doi.org/10.1063/1.3382344

 VandeVondele, J; Hutter, J. 
 JOURNAL OF CHEMICAL PHYSICS, 127 (11), 114105 (2007). 
 Gaussian basis sets for accurate calculations on molecular systems in
 gas and condensed phases.
 https://doi.org/10.1063/1.2770708

 Krack, M. 
 THEORETICAL CHEMISTRY ACCOUNTS, 114 (1-3), 145-152 (2005). 
 Pseudopotentials for H to Kr optimized for gradient-corrected
 exchange-correlation functionals.
 https://doi.org/10.1007/s00214-005-0655-y

 VandeVondele, J; Krack, M; Mohamed, F; Parrinello, M; Chassaing, T;
 Hutter, J. COMPUTER PHYSICS COMMUNICATIONS, 167 (2), 103-128 (2005). 
 QUICKSTEP: Fast and accurate density functional calculations using a
 mixed Gaussian and plane waves approach.
 https://doi.org/10.1016/j.cpc.2004.12.014

 Frigo, M; Johnson, SG. 
 PROCEEDINGS OF THE IEEE, 93 (2), 216-231 (2005). 
 The design and implementation of FFTW3.
 https://doi.org/10.1109/JPROC.2004.840301

 VandeVondele, J; Hutter, J. 
 JOURNAL OF CHEMICAL PHYSICS, 118 (10), 4365-4369 (2003). 
 An efficient orbital transformation method for electronic structure
 calculations.
 https://doi.org/10.1063/1.1543154

 Hartwigsen, C; Goedecker, S; Hutter, J. 
 PHYSICAL REVIEW B, 58 (7), 3641-3662 (1998). 
 Relativistic separable dual-space Gaussian pseudopotentials from H to Rn.
 https://doi.org/10.1103/PhysRevB.58.3641

 Lippert, G; Hutter, J; Parrinello, M. 
 MOLECULAR PHYSICS, 92 (3), 477-487 (1997). 
 A hybrid Gaussian and plane wave density functional scheme.
 https://doi.org/10.1080/002689797170220

 Perdew, JP; Burke, K; Ernzerhof, M. 
 PHYSICAL REVIEW LETTERS, 77 (18), 3865-3868 (1996). 
 Generalized gradient approximation made simple.
 https://doi.org/10.1103/PhysRevLett.77.3865

 Goedecker, S; Teter, M; Hutter, J. 
 PHYSICAL REVIEW B, 54 (3), 1703-1710 (1996). 
 Separable dual-space Gaussian pseudopotentials.
 https://doi.org/10.1103/PhysRevB.54.1703


 -------------------------------------------------------------------------------
 -                                                                             -
 -                                T I M I N G                                  -
 -                                                                             -
 -------------------------------------------------------------------------------
 SUBROUTINE                       CALLS  ASD         SELF TIME        TOTAL TIME
                                MAXIMUM       AVERAGE  MAXIMUM  AVERAGE  MAXIMUM
 CP2K                                 1  1.0    0.046    0.051 9189.971 9189.997
 qs_energies                          1  2.0    0.001    0.001 9187.578 9187.604
 scf_env_do_scf                       1  3.0    0.001    0.001 9171.455 9171.482
 scf_env_do_scf_inner_loop          353  4.0    0.011    0.030 9112.242 9112.377
 qs_ks_update_qs_env                354  5.0    0.003    0.004 4373.320 4374.152
 rebuild_ks_matrix                  353  6.0    0.002    0.003 4371.143 4371.989
 qs_ks_build_kohn_sham_matrix       353  7.0    0.072    0.080 4371.141 4371.986
 qs_rho_update_rho                  354  5.0    0.003    0.004 3648.303 3649.797
 calculate_rho_elec                 708  6.0    8.026    8.138 3648.300 3649.794
 grid_collocate_task_list           708  7.0 2696.354 2759.762 2696.354 2759.762
 pw_transfer                      10436  9.5    1.296    1.610 2356.238 2480.256
 qs_vxc_create                      353  8.0    0.010    0.014 2466.757 2467.966
 fft_wrap_pw1pw2                   9730 10.5    0.180    0.212 2337.281 2461.230
 fft_wrap_pw1pw2_180               5482 11.9  178.513  203.283 2247.138 2367.462
 fft3d_ps                          9730 12.5 1106.291 1143.264 1757.990 1882.488
 xc_rho_set_and_dset_create         353 10.0   26.215   26.422 1575.011 1822.472
 sum_up_and_integrate               177  8.0    4.389    4.452 1675.632 1675.720
 integrate_v_rspace                 354  9.0    0.018    0.021 1671.241 1671.406
 xc_vxc_pw_create                   177  9.0   23.858   24.852 1563.811 1565.006
 grid_integrate_task_list           354 10.0 1314.252 1344.870 1314.252 1344.870
 qs_scf_new_mos                     353  5.0    0.003    0.005 1114.891 1116.599
 qs_scf_loop_do_ot                  353  6.0    0.004    0.004 1114.888 1116.596
 dbcsr_multiply_generic           10623  9.9    0.715    0.769 1058.097 1061.974
 ot_scf_mini                        353  7.0    0.027    0.032 1030.305 1031.626
 density_rs2pw                      708  7.0    0.068    0.084  928.116 1006.342
 xc_exc_calc                        176  9.0    1.967    1.978  902.935  902.950
 multiply_cannon                  10623 10.9    1.072    1.231  855.058  871.504
 multiply_cannon_loop             10623 11.9    0.813    0.960  817.021  846.619
 xc_functional_eval                 353 11.0    0.007    0.009  569.085  817.379
 pbe_lsd_eval                       353 12.0  569.079  817.372  569.079  817.372
 multiply_cannon_multrec          42492 12.9  652.317  696.659  652.458  696.800
 ot_mini                            353  8.0    0.004    0.005  553.034  554.160
 rs_pw_transfer                    5314  9.0    0.113    0.127  429.192  508.754
 mp_alltoall_z22v                  9730 14.5  356.711  489.655  356.711  489.655
 yz_to_x                           4957 12.6   96.661  104.076  316.436  432.090
 x_to_yz                           4773 14.4  197.963  198.709  334.899  348.053
 ot_new_cg_direction                177  9.0    0.008    0.010  322.611  322.620
 potential_pw2rs                    354 10.0    0.547    0.606  321.857  322.124
 apply_preconditioner_dbcsr         356 10.0    0.001    0.001  319.549  320.731
 apply_all                          356 11.0    0.467    0.492  319.548  320.731
 mp_waitany                       17024 11.0  207.502  297.763  207.502  297.763
 rs_pw_transfer_RS2PW_180           710  9.0   72.439   85.011  206.618  294.206
 mp_waitall_1                    564078 13.9  231.213  264.457  231.213  264.457
 mp_sum_d                         29002 11.4  139.563  247.680  139.563  247.680
 pw_scatter_p                      4773 13.4  228.923  236.873  228.923  236.873
 qs_ot_get_derivative               354  9.0    0.005    0.007  228.106  229.435
 qs_ot_get_p                        708  8.0    0.006    0.007  210.629  214.858
 -------------------------------------------------------------------------------

 The number of warnings for this run is : 0
 
 -------------------------------------------------------------------------------
  **** **** ******  **  PROGRAM ENDED AT                 2022-12-08 15:01:05.406
 ***** ** ***  *** **   PROGRAM RAN ON             node0575.palmetto.clemson.edu
 **    ****   ******    PROGRAM RAN BY                                   svicchi
 ***** **    ** ** **   PROGRAM PROCESS ID                               2445195
  **** **  *******  **  PROGRAM STOPPED IN   /scratch1/svicchi/CP2K-367296.pbs02
