          1156
 i =      245, E =     -4812.1715637916
  C        11.8588574812       14.0536033998       13.7364490175
        C              11.8588574812              14.0536033998          29.72624000533797
  C        12.4564514034       12.8907212835       13.0180129557
        C              12.4564514034              12.8907212835         29.007803943537972
  C        11.7046215669       12.1714979102       12.0767087815
        C              11.7046215669              12.1714979102         28.066499769337973
  C        12.2810564246       11.1093269761       11.3843451423
        C              12.2810564246              11.1093269761         27.374136130137973
  C        13.6217659761       10.7399031426       11.6118113608
        C              13.6217659761              10.7399031426         27.601602348637975
  C        14.3551118263       11.4438658835       12.5848312497
        C              14.3551118263              11.4438658835         28.574622237537973
  C        13.7821927265       12.5088472661       13.2763203046
        C              13.7821927265              12.5088472661         29.266111292437973
  C        14.2612647464        9.6491522813       10.8384955019
        C              14.2612647464               9.6491522813         26.828286489737973
  C        14.2566759309        9.6570601350        9.4168003792
        C              14.2566759309               9.6570601350         25.406591367037972
  C        13.7437120651       10.7592955970        8.6629182435
        C              13.7437120651              10.7592955970         24.652709231337973
  C        49.1269611905       21.2331796299       13.8745661830
        C              49.1269611905              21.2331796299         29.864357170837973
  C        48.5501839445       22.4012127766       13.1474962153
        C              48.5501839445              22.4012127766         29.137287203137973
  C        49.3002515783       23.0685879689       12.1665835823
        C              49.3002515783              23.0685879689          28.15637457013797
  C        48.7333307979       24.1077561288       11.4333930095
        C              48.7333307979              24.1077561288         27.423183997337972
  C        47.4027697547       24.5093241593       11.6619696345
        C              47.4027697547              24.5093241593         27.651760622337974
  C        46.6717651487       23.8604010906       12.6754054519
        C              46.6717651487              23.8604010906         28.665196439737972
  C        47.2342273798       22.8154859264       13.4047428660
        C              47.2342273798              22.8154859264          29.39453385383797
  C        46.7724818457       25.5870110781       10.8647050183
        C              46.7724818457              25.5870110781          26.85449600613797
  C        46.7614018146       25.5574041007        9.4429414849
        C              46.7614018146              25.5574041007         25.432732472737975
  C        47.2614398292       24.4423581887        8.6994458518
        C              47.2614398292              24.4423581887          24.68923683963797
  C        14.8605229120        8.5706484297        8.7035740756
        C              14.8605229120               8.5706484297         24.693365063437973
  C        14.8918381693        8.5971254610       11.5151838687
        C              14.8918381693               8.5971254610          27.50497485653797
  C        49.1133094492       21.2034259281        2.1504862251
        C              49.1133094492              21.2034259281         18.140277212937974
  C        48.5278916582       22.3648452874        2.8776668232
        C              48.5278916582              22.3648452874         18.867457811037973
  C        49.2671406766       23.0255840380        3.8705300149
        C              49.2671406766              23.0255840380         19.860321002737972
  C        48.6908169811       24.0601462825        4.6020058229
        C              48.6908169811              24.0601462825          20.59179681073797
  C        47.3603997300       24.4568836960        4.3637860633
        C              47.3603997300              24.4568836960          20.35357705113797
  C        46.6399579345       23.8119742149        3.3402908662
        C              46.6399579345              23.8119742149          19.33008185403797
  C        47.2135265806       22.7760713861        2.6085071238
        C              47.2135265806              22.7760713861         18.598298111637973
  C        46.7219167815       25.5318429316        5.1548069380
        C              46.7219167815              25.5318429316          21.14459792583797
  C        46.7336041186       25.5282120905        6.5765127867
        C              46.7336041186              25.5282120905          22.56630377453797
  C        47.2491265946       24.4290378899        7.3328951600
        C              47.2491265946              24.4290378899          23.32268614783797
  C        40.6342395309       17.1165352340        7.3296469420
        C              40.6342395309              17.1165352340         23.319437929837974
  C        40.6531884720       17.1549299399        4.5205929786
        C              40.6531884720              17.1549299399          20.51038396643797
  C        11.8831623340       14.0866551906        2.2906109491
        C              11.8831623340              14.0866551906         18.280401936937974
  C        12.4726702370       12.9109966810        2.9950620221
        C              12.4726702370              12.9109966810          18.98485300993797
  C        11.7150328070       12.1773930718        3.9207313345
        C              11.7150328070              12.1773930718          19.91052232233797
  C        12.2817044867       11.0949668669        4.5891406310
        C              12.2817044867              11.0949668669         20.578931618837974
  C        13.6207060672       10.7217172849        4.3576766975
        C              13.6207060672              10.7217172849          20.34746768533797
  C        14.3588889735       11.4377988027        3.3974485489
        C              14.3588889735              11.4377988027         19.387239536737972
  C        13.7933799509       12.5189611322        2.7247903807
        C              13.7933799509              12.5189611322          18.71458136853797
  C        14.2542646882        9.6248556757        5.1280011979
        C              14.2542646882               9.6248556757         21.117792185737972
  C        14.2529967906        9.6447825079        6.5498371508
        C              14.2529967906               9.6447825079         22.539628138637973
  C        13.7432263003       10.7538037839        7.2968728449
        C              13.7432263003              10.7538037839         23.286663832737972
  C        22.5125250434        3.2446441298       13.7477348844
        C              22.5125250434               3.2446441298         29.737525872237974
  C        23.2290568152        4.3496509135       13.0477900364
        C              23.2290568152               4.3496509135         29.037581024237973
  C        24.2260677274        4.0676913017       12.1021362154
        C              24.2260677274               4.0676913017         28.091927203237972
  C        24.8555412307        5.1057269181       11.4198012077
        C              24.8555412307               5.1057269181         27.409592195537975
  C        24.5043449236        6.4485046817       11.6630378618
        C              24.5043449236               6.4485046817          27.65282884963797
  C        23.5353754770        6.7221725031       12.6455658652
        C              23.5353754770               6.7221725031         28.635356853037973
  C        22.9010684792        5.6857000973       13.3261248654
        C              22.9010684792               5.6857000973         29.315915853237975
  C        25.1141059121        7.5527116467       10.8861635638
        C              25.1141059121               7.5527116467         26.875954551637975
  C        25.0858919807        7.5437245989        9.4644650050
        C              25.0858919807               7.5437245989          25.45425599283797
  C        24.3766784505        6.5482370579        8.7198850796
        C              24.3766784505               6.5482370579          24.70967606743797
  C        38.3032840439       31.9297111498       13.8439757191
        C              38.3032840439              31.9297111498         29.833766706937972
  C        37.5756985253       30.8394839181       13.1344757799
        C              37.5756985253              30.8394839181          29.12426676773797
  C        36.6187546473       31.1413631896       12.1536571555
        C              36.6187546473              31.1413631896          28.14344814333797
  C        36.0047859174       30.1194010078       11.4351278942
        C              36.0047859174              30.1194010078          27.42491888203797
  C        36.3330349040       28.7710007585       11.6764904870
        C              36.3330349040              28.7710007585         27.666281474837973
  C        37.2598261348       28.4766238160       12.6940873228
        C              37.2598261348              28.4766238160         28.683878310637972
  C        37.8782319190       29.4972338670       13.4110789624
        C              37.8782319190              29.4972338670         29.400869950237972
  C        35.7340130607       27.6780315372       10.8791219986
        C              35.7340130607              27.6780315372         26.868912986437973
  C        35.7671631288       27.6930590209        9.4580079747
        C              35.7671631288              27.6930590209         25.447798962537973
  C        36.4742450132       28.6949999825        8.7212123231
        C              36.4742450132              28.6949999825         24.711003310937972
  C        25.7163535466        8.6080152083        8.7425251161
        C              25.7163535466               8.6080152083         24.732316103937972
  C        25.7152577638        8.6268110370       11.5548100392
        C              25.7152577638               8.6268110370          27.54460102703797
  C        38.3291202199       31.9626948962        2.1610170672
        C              38.3291202199              31.9626948962         18.150808055037974
  C        37.6081433706       30.8898047490        2.9026897160
        C              37.6081433706              30.8898047490         18.892480703837972
  C        36.6831491405       31.1985388126        3.9116689133
        C              36.6831491405              31.1985388126         19.901459901137972
  C        36.0746203530       30.1797375590        4.6418187808
        C              36.0746203530              30.1797375590         20.631609768637972
  C        36.3769766506       28.8274091934        4.3857719063
        C              36.3769766506              28.8274091934          20.37556289413797
  C        37.2790520471       28.5287053727        3.3464077715
        C              37.2790520471              28.5287053727          19.33619875933797
  C        37.8900135723       29.5439483325        2.6178397640
        C              37.8900135723              29.5439483325         18.607630751837974
  C        35.7707793648       27.7278917694        5.1698632545
        C              35.7707793648              27.7278917694          21.15965424233797
  C        35.7857601895       27.7188362940        6.5915981462
        C              35.7857601895              27.7188362940         22.581389134037973
  C        36.4828750720       28.7075347354        7.3547113344
        C              36.4828750720              28.7075347354          23.34450232223797
  C        46.1355376930       26.6208176929        7.2866490548
        C              46.1355376930              26.6208176929         23.276440042637972
  C        46.0879065141       26.5801702956        4.4787576557
        C              46.0879065141              26.5801702956          20.46854864353797
  C        22.4602187196        3.2549572603        2.2622986235
        C              22.4602187196               3.2549572603         18.252089611337972
  C        23.1543576506        4.3629682001        2.9858631819
        C              23.1543576506               4.3629682001          18.97565416973797
  C        24.1566860211        4.0748989346        3.9256217678
        C              24.1566860211               4.0748989346         19.915412755637973
  C        24.7857247111        5.1038551927        4.6220144682
        C              24.7857247111               5.1038551927          20.61180545603797
  C        24.4324712903        6.4498250752        4.4001795804
        C              24.4324712903               6.4498250752          20.38997056823797
  C        23.4528672442        6.7313616118        3.4293545588
        C              23.4528672442               6.7313616118          19.41914554663797
  C        22.8189320599        5.7024522310        2.7337817162
        C              22.8189320599               5.7024522310         18.723572704037974
  C        25.0673994111        7.5460194823        5.1729478733
        C              25.0673994111               7.5460194823         21.162738861137974
  C        25.0627663650        7.5399289726        6.5955429366
        C              25.0627663650               7.5399289726         22.585333924437972
  C        24.3637316164        6.5477844741        7.3532808114
        C              24.3637316164               6.5477844741         23.343071799237972
  C        26.6235801973       17.8638533640       13.7804768288
        C              26.6235801973              17.8638533640         29.770267816637972
  C        25.3144696787       17.9050715092       13.0548303437
        C              25.3144696787              17.9050715092         29.044621331537975
  C        25.0604992091       18.8928940650       12.0906557407
        C              25.0604992091              18.8928940650          28.08044672853797
  C        23.8474462784       18.9129597281       11.4044908953
        C              23.8474462784              18.9129597281          27.39428188313797
  C        22.8520716255       17.9474983853       11.6593756132
        C              22.8520716255              17.9474983853         27.649166601037972
  C        23.1030524278       16.9818725046       12.6524370184
        C              23.1030524278              16.9818725046          28.64222800623797
  C        24.3178823848       16.9572139881       13.3367917000
        C              24.3178823848              16.9572139881          29.32658268783797
  C        21.5787466734       17.9319815656       10.8949752162
        C              21.5787466734              17.9319815656         26.884766204037973
  C        21.5775295947       17.9068438079        9.4722960944
        C              21.5775295947              17.9068438079          25.46208708223797
  C        22.7825125040       17.7810102104        8.7110941674
        C              22.7825125040              17.7810102104         24.700885155237973
  C        34.4417052756       17.1936343721       13.9197826349
        C              34.4417052756              17.1936343721         29.909573622737973
  C        35.7342990777       17.1437882468       13.1729114190
        C              35.7342990777              17.1437882468         29.162702406837973
  C        35.9398533951       16.1704293262       12.1830823088
        C              35.9398533951              16.1704293262         28.172873296637974
  C        37.1193593800       16.1553835656       11.4446329435
        C              37.1193593800              16.1553835656         27.434423931337975
  C        38.1256577251       17.1121259191       11.6782609124
        C              38.1256577251              17.1121259191         27.668051900237973
  C        37.9231916347       18.0667059345       12.6926767958
        C              37.9231916347              18.0667059345         28.682467783637975
  C        36.7399769805       18.0874625263       13.4274081754
        C              36.7399769805              18.0874625263         29.417199163237974
  C        39.3793124724       17.1182475882       10.8923707850
        C              39.3793124724              17.1182475882         26.882161772837975
  C        39.3745022925       17.1265191579        9.4710165835
        C              39.3745022925              17.1265191579         25.460807571337973
  C        38.1658745754       17.2320061862        8.7130398013
        C              38.1658745754              17.2320061862         24.702830789137973
  C        20.3307653570       17.9252053627        8.7638553997
        C              20.3307653570              17.9252053627         24.753646387537973
  C        20.3536000227       17.9376032225       11.5769789715
        C              20.3536000227              17.9376032225         27.566769959337975
  C        34.4741714165       17.2449595258        2.1876934820
        C              34.4741714165              17.2449595258          18.17748446983797
  C        35.7761168498       17.1696521155        2.9159143831
        C              35.7761168498              17.1696521155         18.905705370937973
  C        35.9998197883       16.1649974628        3.8700808846
        C              35.9998197883              16.1649974628          19.85987187243797
  C        37.1848933319       16.1418219722        4.6004117178
        C              37.1848933319              16.1418219722          20.59020270563797
  C        38.1754890051       17.1218027412        4.3923008482
        C              38.1754890051              17.1218027412         20.382091836037972
  C        37.9582711284       18.1009548526        3.4065144355
        C              37.9582711284              18.1009548526          19.39630542333797
  C        36.7702660750       18.1293209254        2.6804161652
        C              36.7702660750              18.1293209254          18.67020715303797
  C        39.4231017180       17.1344049069        5.1859153439
        C              39.4231017180              17.1344049069          21.17570633173797
  C        39.3976115864       17.1348698154        6.6061508733
        C              39.3976115864              17.1348698154         22.595941861137973
  C        38.1780484813       17.2345336016        7.3468038671
        C              38.1780484813              17.2345336016          23.33659485493797
  C        35.1560572058       26.6391248500        7.2951254176
        C              35.1560572058              26.6391248500         23.284916405437972
  C        35.1770968239       26.6596632994        4.4862526317
        C              35.1770968239              26.6596632994         20.476043619537972
  C        26.5700123631       17.8269316385        2.3288905643
        C              26.5700123631              17.8269316385         18.318681552137974
  C        25.2535610302       17.8717513868        3.0344849698
        C              25.2535610302              17.8717513868         19.024275957637972
  C        24.9889372160       18.8757601397        3.9779385332
        C              24.9889372160              18.8757601397         19.967729521037974
  C        23.7718332232       18.8993093138        4.6533263192
        C              23.7718332232              18.8993093138         20.643117307037972
  C        22.7896837389       17.9190739153        4.4077417395
        C              22.7896837389              17.9190739153          20.39753272733797
  C        23.0480444446       16.9405053110        3.4309123784
        C              23.0480444446              16.9405053110         19.420703366237973
  C        24.2663028522       16.9147350683        2.7544475044
        C              24.2663028522              16.9147350683         18.744238492237972
  C        21.5266532601       17.8993368628        5.1816847154
        C              21.5266532601              17.8993368628         21.171475703237974
  C        21.5509390493       17.8892009454        6.6032359506
        C              21.5509390493              17.8892009454         22.593026938437973
  C        22.7696059154       17.7728836315        7.3448046577
        C              22.7696059154              17.7728836315         23.334595645537973
  C        14.0466345626       17.8286690413        2.2943337693
        C              14.0466345626              17.8286690413         18.284124757137974
  C        15.3502529906       17.8849205022        3.0201237239
        C              15.3502529906              17.8849205022         19.009914711737974
  C        15.6058576070       18.8858247637        3.9705289035
        C              15.6058576070              18.8858247637         19.960319891337974
  C        16.8143549841       18.9053708662        4.6641493250
        C              16.8143549841              18.9053708662         20.653940312837975
  C        17.8016815572       17.9269378552        4.4296640067
        C              17.8016815572              17.9269378552         20.419454994537972
  C        17.5509108296       16.9507002199        3.4468320122
        C              17.5509108296              16.9507002199         19.436623000037972
  C        16.3418883743       16.9263915571        2.7548216042
        C              16.3418883743              16.9263915571         18.744612592037974
  C        19.0705692195       17.9086136320        5.1986327793
        C              19.0705692195              17.9086136320         21.188423767137973
  C        19.0696219017       17.9051338781        6.6211145122
        C              19.0696219017              17.9051338781         22.610905500037973
  C        17.8629178219       17.8069768574        7.3829051505
        C              17.8629178219              17.8069768574          23.37269613833797
  C        46.8064619774       17.2196033533        2.1646705023
        C              46.8064619774              17.2196033533         18.154461490137972
  C        45.5183973113       17.1603558410        2.9131842166
        C              45.5183973113              17.1603558410         18.902975204437972
  C        45.3152644214       16.1859063655        3.9024074220
        C              45.3152644214              16.1859063655         19.892198409837974
  C        44.1353393585       16.1702319251        4.6410759482
        C              44.1353393585              16.1702319251          20.63086693603797
  C        43.1292986276       17.1289776909        4.4117913668
        C              43.1292986276              17.1289776909         20.401582354637974
  C        43.3301007632       18.0835947760        3.3966211035
        C              43.3301007632              18.0835947760         19.386412091337974
  C        44.5108474313       18.1032998582        2.6591001487
        C              44.5108474313              18.1032998582         18.648891136537973
  C        41.8767268390       17.1393395730        5.2001975231
        C              41.8767268390              17.1393395730         21.189988510937972
  C        41.8813975096       17.1361576593        6.6219334356
        C              41.8813975096              17.1361576593         22.611724423437973
  C        43.0894325502       17.2351793281        7.3815295622
        C              43.0894325502              17.2351793281          23.37132055003797
  C        20.3167398351       17.9151728567        7.3289072975
        C              20.3167398351              17.9151728567         23.318698285337973
  C        20.2943704525       17.8889923613        4.5157453965
        C              20.2943704525              17.8889923613         20.505536384337972
  C        46.7861513085       17.2307094468       13.8856497789
        C              46.7861513085              17.2307094468         29.875440766737974
  C        45.4823613008       17.1242664022       13.1725048293
        C              45.4823613008              17.1242664022         29.162295817137974
  C        45.2649791686       16.1282666667       12.2087029083
        C              45.2649791686              16.1282666667         28.198493896137972
  C        44.0768328812       16.1028878898       11.4830740594
        C              44.0768328812              16.1028878898         27.472865047237974
  C        43.0776435596       17.0701117047       11.7052590739
        C              43.0776435596              17.0701117047         27.695050061737973
  C        43.2847632575       18.0347792174       12.7086352369
        C              43.2847632575              18.0347792174         28.698426224737972
  C        44.4742853181       18.0669265654       13.4288976634
        C              44.4742853181              18.0669265654          29.41868865123797
  C        41.8326326001       17.0940781024       10.9078725354
        C              41.8326326001              17.0940781024         26.897663523237973
  C        41.8588042100       17.1120562457        9.4873783657
        C              41.8588042100              17.1120562457         25.477169353537974
  C        43.0785886953       17.2212721978        8.7479046328
        C              43.0785886953              17.2212721978          24.73769562063797
  C        46.1533339405       26.6372574311        8.7211957458
        C              46.1533339405              26.6372574311         24.710986733637974
  C        46.1624943407       26.6561057563       11.5308335551
        C              46.1624943407              26.6561057563         27.520624542937973
  C        14.0461623138       17.8320970307       13.7038344365
        C              14.0461623138              17.8320970307         29.693625424337974
  C        15.3674032617       17.9069462830       13.0144883008
        C              15.3674032617              17.9069462830         29.004279288637974
  C        15.6405492578       18.9208764002       12.0840949556
        C              15.6405492578              18.9208764002         28.073885943437972
  C        16.8697906096       18.9578485835       11.4297292462
        C              16.8697906096              18.9578485835         27.419520234037975
  C        17.8538647319       17.9801309327       11.6797447407
        C              17.8538647319              17.9801309327         27.669535728537973
  C        17.5878530337       16.9959182489       12.6490991591
        C              17.5878530337              16.9959182489         28.638890146937975
  C        16.3606270111       16.9582529320       13.3069173288
        C              16.3606270111              16.9582529320         29.296708316637975
  C        19.1208749286       17.9536614974       10.9104117890
        C              19.1208749286              17.9536614974         26.900202776837972
  C        19.0958696466       17.9267690593        9.4890151101
        C              19.0958696466              17.9267690593         25.478806097937973
  C        17.8757884881       17.8166996318        8.7488800501
        C              17.8757884881              17.8166996318         24.738671037937973
  C        28.8094813946       14.0915096584        2.3944587735
        C              28.8094813946              14.0915096584         18.384249761337973
  C        28.1979050394       12.9136034578        3.0800081819
        C              28.1979050394              12.9136034578         19.069799169737973
  C        28.9321440719       12.1588704587        4.0060693969
        C              28.9321440719              12.1588704587         19.995860384737973
  C        28.3384239694       11.0791347572        4.6551050097
        C              28.3384239694              11.0791347572         20.644895997537972
  C        26.9959020469       10.7328207470        4.4028105150
        C              26.9959020469              10.7328207470         20.392601502837973
  C        26.2818753212       11.4688822324        3.4405575465
        C              26.2818753212              11.4688822324         19.430348534337973
  C        26.8746672568       12.5474749804        2.7885320006
        C              26.8746672568              12.5474749804          18.77832298843797
  C        26.3308724812        9.6516108023        5.1657037208
        C              26.3308724812               9.6516108023         21.155494708637974
  C        26.3279793734        9.6741772328        6.5864595397
        C              26.3279793734               9.6741772328         22.576250527537972
  C        26.8547000783       10.7777949338        7.3304986792
        C              26.8547000783              10.7777949338         23.320289667037972
  C        32.1776155178       21.2429752687        2.1501118749
        C              32.1776155178              21.2429752687         18.139902862737973
  C        32.7727082363       22.4116543075        2.8671090725
        C              32.7727082363              22.4116543075          18.85690006033797
  C        32.0255440020       23.0897505910        3.8421752342
        C              32.0255440020              23.0897505910         19.831966222037973
  C        32.5978997055       24.1278964215        4.5712609197
        C              32.5978997055              24.1278964215         20.561051907537973
  C        33.9326506246       24.5155192078        4.3448256246
        C              33.9326506246              24.5155192078         20.334616612437973
  C        34.6619353958       23.8568460782        3.3372540768