 DBCSR| CPU Multiplication driver                                           XSMM
 DBCSR| Multrec recursion limit                                              512
 DBCSR| Multiplication stack size                                           1000
 DBCSR| Maximum elements for images                                    UNLIMITED
 DBCSR| Multiplicative factor virtual images                                   1
 DBCSR| Use multiplication densification                                       T
 DBCSR| Multiplication size stacks                                             3
 DBCSR| Number of 3D layers                                               SINGLE
 DBCSR| Use MPI memory allocation                                              T
 DBCSR| Use RMA algorithm                                                      F
 DBCSR| Use Communication thread                                               T
 DBCSR| Communication thread load                                             87


  **** **** ******  **  PROGRAM STARTED AT               2021-11-25 11:29:53.728
 ***** ** ***  *** **   PROGRAM STARTED ON         node1945.palmetto.clemson.edu
 **    ****   ******    PROGRAM STARTED BY                               svicchi
 ***** **    ** ** **   PROGRAM PROCESS ID                               1738418
  **** **  *******  **  PROGRAM STARTED IN  /scratch2/svicchi/CP2K-4057813.pbs02

 CP2K| version string:                                          CP2K version 7.1
 CP2K| source code revision number:                                  git:e635599
 CP2K| cp2kflags: libint fftw3 libxc parallel mpi3 scalapack xsmm               
 CP2K| is freely available from                            https://www.cp2k.org/
 CP2K| Program compiled at                          Wed Aug 12 10:01:37 EDT 2020
 CP2K| Program compiled on                           util02.palmetto.clemson.edu
 CP2K| Program compiled for                          linux-centos8-ivybridge-gcc
 CP2K| Data directory path    /software/spackages/linux-centos8-ivybridge/gcc-8.
 CP2K| Input file name                219_Zr18_C264_Ni4_O100_H184_RKS-multi1.inp

 GLOBAL| Force Environment number                                              1
 GLOBAL| Basis set file name                                          BASIS_file
 GLOBAL| Potential file name                                     POTENTIALS_file
 GLOBAL| MM Potential file name                                     MM_POTENTIAL
 GLOBAL| Coordinate file name           219_Zr18_C264_Ni4_O100_H184_RKS-multi1.x
 GLOBAL| Method name                                                        CP2K
 GLOBAL| Project name                   info-114-219_Zr18_C264_Ni4_O100_H184_RKS
 GLOBAL| Preferred FFT library                                             FFTW3
 GLOBAL| Preferred diagonalization lib.                                       SL
 GLOBAL| Run type                                           VIBRATIONAL_ANALYSIS
 GLOBAL| All-to-all communication in single precision                          F
 GLOBAL| FFTs using library dependent lengths                                  F
 GLOBAL| Global print level                                               MEDIUM
 GLOBAL| MPI I/O enabled                                                       T
 GLOBAL| Total number of message passing processes                            16
 GLOBAL| Number of threads for this process                                    1
 GLOBAL| This output is from process                                           0
 GLOBAL| CPU model name                 Intel(R) Xeon(R) CPU E5-2665 0 @ 2.40GHz
 GLOBAL| CPUID                                                              1001

 MEMORY| system memory details [Kb]
 MEMORY|                        rank 0           min           max       average
 MEMORY| MemTotal            131713748     131713748     131713748     131713748
 MEMORY| MemFree             126402556     126386416     126404632     126396930
 MEMORY| Buffers                  6284          6284          6284          6284
 MEMORY| Cached                1643244       1643244       1643244       1643244
 MEMORY| Slab                   730512        730512        730512        730512
 MEMORY| SReclaimable           333276        333276        333276        333276
 MEMORY| MemLikelyFree       128385360     128369220     128387436     128379734


 *** Fundamental physical constants (SI units) ***

 *** Literature: B. J. Mohr and B. N. Taylor,
 ***             CODATA recommended values of the fundamental physical
 ***             constants: 2006, Web Version 5.1
 ***             http://physics.nist.gov/constants

 Speed of light in vacuum [m/s]                             2.99792458000000E+08
 Magnetic constant or permeability of vacuum [N/A**2]       1.25663706143592E-06
 Electric constant or permittivity of vacuum [F/m]          8.85418781762039E-12
 Planck constant (h) [J*s]                                  6.62606896000000E-34
 Planck constant (h-bar) [J*s]                              1.05457162825177E-34
 Elementary charge [C]                                      1.60217648700000E-19
 Electron mass [kg]                                         9.10938215000000E-31
 Electron g factor [ ]                                     -2.00231930436220E+00
 Proton mass [kg]                                           1.67262163700000E-27
 Fine-structure constant                                    7.29735253760000E-03
 Rydberg constant [1/m]                                     1.09737315685270E+07
 Avogadro constant [1/mol]                                  6.02214179000000E+23
 Boltzmann constant [J/K]                                   1.38065040000000E-23
 Atomic mass unit [kg]                                      1.66053878200000E-27
 Bohr radius [m]                                            5.29177208590000E-11

 *** Conversion factors ***

 [u] -> [a.u.]                                              1.82288848426455E+03
 [Angstrom] -> [Bohr] = [a.u.]                              1.88972613288564E+00
 [a.u.] = [Bohr] -> [Angstrom]                              5.29177208590000E-01
 [a.u.] -> [s]                                              2.41888432650478E-17
 [a.u.] -> [fs]                                             2.41888432650478E-02
 [a.u.] -> [J]                                              4.35974393937059E-18
 [a.u.] -> [N]                                              8.23872205491840E-08
 [a.u.] -> [K]                                              3.15774647902944E+05
 [a.u.] -> [kJ/mol]                                         2.62549961709828E+03
 [a.u.] -> [kcal/mol]                                       6.27509468713739E+02
 [a.u.] -> [Pa]                                             2.94210107994716E+13
 [a.u.] -> [bar]                                            2.94210107994716E+08
 [a.u.] -> [atm]                                            2.90362800883016E+08
 [a.u.] -> [eV]                                             2.72113838565563E+01
 [a.u.] -> [Hz]                                             6.57968392072181E+15
 [a.u.] -> [1/cm] (wave numbers)                            2.19474631370540E+05
 [a.u./Bohr**2] -> [1/cm]                                   5.14048714338585E+03
 

 CELL_TOP| Volume [angstrom^3]:                                        22838.217
 CELL_TOP| Vector a [angstrom    40.611     0.000     0.000    |a| =      40.611
 CELL_TOP| Vector b [angstrom    20.305    35.170     0.000    |b| =      40.611
 CELL_TOP| Vector c [angstrom     0.000     0.000    15.990    |c| =      15.990
 CELL_TOP| Angle (b,c), alpha [degree]:                                   90.000
 CELL_TOP| Angle (a,c), beta  [degree]:                                   90.000
 CELL_TOP| Angle (a,b), gamma [degree]:                                   60.000
 CELL_TOP| Requested initial symmetry:                       MONOCLINIC_GAMMA_AB
 CELL_TOP| Numerically orthorhombic:                                          NO

 CELL| Volume [angstrom^3]:                                            22838.217
 CELL| Vector a [angstrom]:      40.611     0.000     0.000    |a| =      40.611
 CELL| Vector b [angstrom]:      20.305    35.170     0.000    |b| =      40.611
 CELL| Vector c [angstrom]:       0.000     0.000    15.990    |c| =      15.990
 CELL| Angle (b,c), alpha [degree]:                                       90.000
 CELL| Angle (a,c), beta  [degree]:                                       90.000
 CELL| Angle (a,b), gamma [degree]:                                       60.000
 CELL| Requested initial symmetry:                           MONOCLINIC_GAMMA_AB
 CELL| Numerically orthorhombic:                                              NO

 CELL_REF| Volume [angstrom^3]:                                        22838.217
 CELL_REF| Vector a [angstrom    40.611     0.000     0.000    |a| =      40.611
 CELL_REF| Vector b [angstrom    20.305    35.170     0.000    |b| =      40.611
 CELL_REF| Vector c [angstrom     0.000     0.000    15.990    |c| =      15.990
 CELL_REF| Angle (b,c), alpha [degree]:                                   90.000
 CELL_REF| Angle (a,c), beta  [degree]:                                   90.000
 CELL_REF| Angle (a,b), gamma [degree]:                                   60.000
 CELL_REF| Requested initial symmetry:                       MONOCLINIC_GAMMA_AB
 CELL_REF| Numerically orthorhombic:                                          NO

 *******************************************************************************
 *******************************************************************************
 **                                                                           **
 **     #####                         ##              ##                      **
 **    ##   ##            ##          ##              ##                      **
 **   ##     ##                       ##            ######                    **
 **   ##     ##  ##   ##  ##   #####  ##  ##   ####   ##    #####    #####    **
 **   ##     ##  ##   ##  ##  ##      ## ##   ##      ##   ##   ##  ##   ##   **
 **   ##  ## ##  ##   ##  ##  ##      ####     ###    ##   ######   ######    **
 **    ##  ###   ##   ##  ##  ##      ## ##      ##   ##   ##       ##        **
 **     #######   #####   ##   #####  ##  ##  ####    ##    #####   ##        **
 **           ##                                                    ##        **
 **                                                                           **
 **                                                ... make the atoms dance   **
 **                                                                           **
 **            Copyright (C) by CP2K developers group (2000 - 2019)           **
 **                                                                           **
 *******************************************************************************

 DFT| Spin restricted Kohn-Sham (RKS) calculation                            RKS
 DFT| Multiplicity                                                             1
 DFT| Number of spin states                                                    1
 DFT| Charge                                                                   0
 DFT| Self-interaction correction (SIC)                                       NO
 DFT| Cutoffs: density                                              1.000000E-10
 DFT|          gradient                                             1.000000E-10
 DFT|          tau                                                  1.000000E-10
 DFT|          cutoff_smoothing_range                               0.000000E+00
 DFT| XC density smoothing                                                  NONE
 DFT| XC derivatives                                                          PW
 FUNCTIONAL| ROUTINE=NEW
 FUNCTIONAL| PBE:
 FUNCTIONAL| J.P.Perdew, K.Burke, M.Ernzerhof, Phys. Rev. Letter, vol. 77, n 18,
 FUNCTIONAL|  pp. 3865-3868, (1996){spin unpolarized}                           
 vdW POTENTIAL|                                                   Pair Potential
 vdW POTENTIAL|          DFT-D3 (Version 3.1)
 vdW POTENTIAL|          Potential Form: S. Grimme et al, JCP 132: 154104 (2010)
 vdW POTENTIAL|          BJ Damping: S. Grimme et al, JCC 32: 1456 (2011)
 vdW POTENTIAL|          Cutoff Radius [Bohr]:                             20.00
 vdW POTENTIAL|          s6 Scaling Factor:                               1.0000
 vdW POTENTIAL|          a1 Damping Factor:                               0.4289
 vdW POTENTIAL|          s8 Scaling Factor:                               0.7875
 vdW POTENTIAL|          a2 Damping Factor:                               4.4407
 vdW POTENTIAL|          Cutoff for CN calculation:                   0.1000E-05

 QS| Method:                                                                 GPW
 QS| Density plane wave grid type                        NON-SPHERICAL FULLSPACE
 QS| Number of grid levels:                                                    5
 QS| Density cutoff [a.u.]:                                                180.0
 QS| Multi grid cutoff [a.u.]: 1) grid level                               180.0
 QS|                           2) grid level                                60.0
 QS|                           3) grid level                                20.0
 QS|                           4) grid level                                 6.7
 QS|                           5) grid level                                 2.2
 QS| Grid level progression factor:                                          3.0
 QS| Relative density cutoff [a.u.]:                                        40.0
 QS| Consistent realspace mapping and integration 
 QS| Interaction thresholds: eps_pgf_orb:                                1.0E-05
 QS|                         eps_filter_matrix:                          0.0E+00
 QS|                         eps_core_charge:                            1.0E-12
 QS|                         eps_rho_gspace:                             1.0E-10
 QS|                         eps_rho_rspace:                             1.0E-10
 QS|                         eps_gvg_rspace:                             1.0E-05
 QS|                         eps_ppl:                                    1.0E-02
 QS|                         eps_ppnl:                                   1.0E-07


 ATOMIC KIND INFORMATION

  1. Atomic kind: C                                     Number of atoms:     264

     Orbital Basis Set                                     DZVP-MOLOPT-SR-GTH-q4

       Number of orbital shell sets:                                           1
       Number of orbital shells:                                               5
       Number of primitive Cartesian functions:                                5
       Number of Cartesian basis functions:                                   14
       Number of spherical basis functions:                                   13
       Norm type:                                                              2

       Normalised Cartesian orbitals:

                        Set   Shell   Orbital            Exponent    Coefficient

                          1       1    2s                5.605331       0.322515
                                                         2.113016       0.213043
                                                         0.769911      -0.209686
                                                         0.348157      -0.219794
                                                         0.128212      -0.022789

                          1       2    3s                5.605331       0.552234
                                                         2.113016       0.082072
                                                         0.769911       0.007843
                                                         0.348157       0.136893
                                                         0.128212       0.074283

                          1       3    3px               5.605331      -0.703879
                                                         2.113016      -0.642521
                                                         0.769911      -0.374851
                                                         0.348157      -0.139743
                                                         0.128212      -0.027849
                          1       3    3py               5.605331      -0.703879
                                                         2.113016      -0.642521
                                                         0.769911      -0.374851
                                                         0.348157      -0.139743
                                                         0.128212      -0.027849
                          1       3    3pz               5.605331      -0.703879
                                                         2.113016      -0.642521
                                                         0.769911      -0.374851
                                                         0.348157      -0.139743
                                                         0.128212      -0.027849

                          1       4    4px               5.605331      -0.480376
                                                         2.113016      -0.552894
                                                         0.769911      -0.316145
                                                         0.348157       0.210505
                                                         0.128212       0.076095
                          1       4    4py               5.605331      -0.480376
                                                         2.113016      -0.552894
                                                         0.769911      -0.316145
                                                         0.348157       0.210505
                                                         0.128212       0.076095
                          1       4    4pz               5.605331      -0.480376
                                                         2.113016      -0.552894
                                                         0.769911      -0.316145
                                                         0.348157       0.210505
                                                         0.128212       0.076095

                          1       5    4dx2              5.605331       0.640026
                                                         2.113016       0.274300
                                                         0.769911       0.446711
                                                         0.348157       0.028674
                                                         0.128212       0.029790
                          1       5    4dxy              5.605331       1.108557
                                                         2.113016       0.475102
                                                         0.769911       0.773726
                                                         0.348157       0.049666
                                                         0.128212       0.051599
                          1       5    4dxz              5.605331       1.108557
                                                         2.113016       0.475102
                                                         0.769911       0.773726
                                                         0.348157       0.049666
                                                         0.128212       0.051599
                          1       5    4dy2              5.605331       0.640026
                                                         2.113016       0.274300
                                                         0.769911       0.446711
                                                         0.348157       0.028674
                                                         0.128212       0.029790
                          1       5    4dyz              5.605331       1.108557
                                                         2.113016       0.475102
                                                         0.769911       0.773726
                                                         0.348157       0.049666
                                                         0.128212       0.051599
                          1       5    4dz2              5.605331       0.640026
                                                         2.113016       0.274300
                                                         0.769911       0.446711
                                                         0.348157       0.028674
                                                         0.128212       0.029790

     GTH Potential information for                                    GTH-PBE-q4

       Description:                       Goedecker-Teter-Hutter pseudopotential
                                           Goedecker et al., PRB 54, 1703 (1996)
                                          Hartwigsen et al., PRB 58, 3641 (1998)
                                                      Krack, TCA 114, 145 (2005)

       Gaussian exponent of the core charge distribution:               4.364419
       Electronic configuration (s p d ...):                               2   2

       Parameters of the local part of the GTH pseudopotential:

                          rloc        C1          C2          C3          C4
                        0.338471   -8.803674    1.339211

       Parameters of the non-local part of the GTH pseudopotential:

                   l      r(l)      h(i,j,l)

                   0    0.302576    9.622487
                   1    0.291507

  2. Atomic kind: H                                     Number of atoms:     184

     Orbital Basis Set                                     DZVP-MOLOPT-SR-GTH-q1

       Number of orbital shell sets:                                           1
       Number of orbital shells:                                               3
       Number of primitive Cartesian functions:                                5
       Number of Cartesian basis functions:                                    5
       Number of spherical basis functions:                                    5
       Norm type:                                                              2

       Normalised Cartesian orbitals:

                        Set   Shell   Orbital            Exponent    Coefficient

                          1       1    2s               10.068468      -0.133023
                                                         2.680223      -0.177618
                                                         0.791502      -0.258419
                                                         0.239116      -0.107525
                                                         0.082193      -0.014019

                          1       2    3s               10.068468       0.344673
                                                         2.680223       1.819821
                                                         0.791502      -0.999069
                                                         0.239116       0.017430
                                                         0.082193       0.082660

                          1       3    3px              10.068468       0.155326
                                                         2.680223       0.367157
                                                         0.791502       0.311480
                                                         0.239116       0.080105
                                                         0.082193       0.033440
                          1       3    3py              10.068468       0.155326
                                                         2.680223       0.367157
                                                         0.791502       0.311480
                                                         0.239116       0.080105
                                                         0.082193       0.033440
                          1       3    3pz              10.068468       0.155326
                                                         2.680223       0.367157
                                                         0.791502       0.311480
                                                         0.239116       0.080105
                                                         0.082193       0.033440

     GTH Potential information for                                    GTH-PBE-q1

       Description:                       Goedecker-Teter-Hutter pseudopotential
                                           Goedecker et al., PRB 54, 1703 (1996)
                                          Hartwigsen et al., PRB 58, 3641 (1998)
                                                      Krack, TCA 114, 145 (2005)

       Gaussian exponent of the core charge distribution:              12.500000
       Electronic configuration (s p d ...):                                   1

       Parameters of the local part of the GTH pseudopotential:

                          rloc        C1          C2          C3          C4
                        0.200000   -4.178900    0.724463

  3. Atomic kind: Ni                                    Number of atoms:       4

     Orbital Basis Set                                    DZVP-MOLOPT-SR-GTH-q18

       Number of orbital shell sets:                                           1
       Number of orbital shells:                                               8
       Number of primitive Cartesian functions:                                6
       Number of Cartesian basis functions:                                   31
       Number of spherical basis functions:                                   26
       Norm type:                                                              2

       Normalised Cartesian orbitals:

                        Set   Shell   Orbital            Exponent    Coefficient

                          1       1    2s               10.077428      -0.684558
                                                         5.847736      -0.844524
                                                         2.494033       1.088856
                                                         0.988355       0.395503
                                                         0.344978       0.010224
                                                         0.099466      -0.003250

                          1       2    3s               10.077428       0.096747
                                                         5.847736       0.162504
                                                         2.494033      -0.297192
                                                         0.988355      -0.319752
                                                         0.344978       0.088318
                                                         0.099466       0.118587

                          1       3    4s               10.077428       0.036437
                                                         5.847736      -0.381480
                                                         2.494033       0.003759
                                                         0.988355      -1.048256
                                                         0.344978       0.855825
                                                         0.099466      -0.176350

                          1       4    3px              10.077428      -3.133913
                                                         5.847736       3.027656
                                                         2.494033       2.353227
                                                         0.988355       0.554184
                                                         0.344978       0.019462
                                                         0.099466      -0.000291
                          1       4    3py              10.077428      -3.133913
                                                         5.847736       3.027656
                                                         2.494033       2.353227
                                                         0.988355       0.554184
                                                         0.344978       0.019462
                                                         0.099466      -0.000291
                          1       4    3pz              10.077428      -3.133913
                                                         5.847736       3.027656
                                                         2.494033       2.353227
                                                         0.988355       0.554184
                                                         0.344978       0.019462
                                                         0.099466      -0.000291

                          1       5    4px              10.077428      -0.112729
                                                         5.847736      -0.114008
                                                         2.494033      -0.347303
                                                         0.988355      -0.110323
                                                         0.344978       0.154096
                                                         0.099466       0.058386
                          1       5    4py              10.077428      -0.112729
                                                         5.847736      -0.114008
                                                         2.494033      -0.347303
                                                         0.988355      -0.110323
                                                         0.344978       0.154096
                                                         0.099466       0.058386
                          1       5    4pz              10.077428      -0.112729
                                                         5.847736      -0.114008
                                                         2.494033      -0.347303
                                                         0.988355      -0.110323
                                                         0.344978       0.154096
                                                         0.099466       0.058386

                          1       6    4dx2             10.077428       8.232726
                                                         5.847736       9.105758
                                                         2.494033       2.849835
                                                         0.988355       0.554319
                                                         0.344978       0.067245
                                                         0.099466       0.001940
                          1       6    4dxy             10.077428      14.259500
                                                         5.847736      15.771636
                                                         2.494033       4.936060
                                                         0.988355       0.960109
                                                         0.344978       0.116472
                                                         0.099466       0.003360
                          1       6    4dxz             10.077428      14.259500
                                                         5.847736      15.771636
                                                         2.494033       4.936060
                                                         0.988355       0.960109
                                                         0.344978       0.116472
                                                         0.099466       0.003360
                          1       6    4dy2             10.077428       8.232726
                                                         5.847736       9.105758
                                                         2.494033       2.849835
                                                         0.988355       0.554319
                                                         0.344978       0.067245
                                                         0.099466       0.001940
                          1       6    4dyz             10.077428      14.259500
                                                         5.847736      15.771636
                                                         2.494033       4.936060
                                                         0.988355       0.960109
                                                         0.344978       0.116472
                                                         0.099466       0.003360
                          1       6    4dz2             10.077428       8.232726
                                                         5.847736       9.105758
                                                         2.494033       2.849835
                                                         0.988355       0.554319
                                                         0.344978       0.067245
                                                         0.099466       0.001940

                          1       7    5dx2             10.077428      -2.715373
                                                         5.847736      -4.020640
                                                         2.494033      -1.397569
                                                         0.988355      -0.076143
                                                         0.344978       0.033435
                                                         0.099466       0.026032
                          1       7    5dxy             10.077428      -4.703164
                                                         5.847736      -6.963952
                                                         2.494033      -2.420661
                                                         0.988355      -0.131883
                                                         0.344978       0.057911
                                                         0.099466       0.045088
                          1       7    5dxz             10.077428      -4.703164
                                                         5.847736      -6.963952
                                                         2.494033      -2.420661
                                                         0.988355      -0.131883
                                                         0.344978       0.057911
                                                         0.099466       0.045088
                          1       7    5dy2             10.077428      -2.715373
                                                         5.847736      -4.020640
                                                         2.494033      -1.397569
                                                         0.988355      -0.076143
                                                         0.344978       0.033435
                                                         0.099466       0.026032
                          1       7    5dyz             10.077428      -4.703164
                                                         5.847736      -6.963952
                                                         2.494033      -2.420661
                                                         0.988355      -0.131883
                                                         0.344978       0.057911
                                                         0.099466       0.045088
                          1       7    5dz2             10.077428      -2.715373
                                                         5.847736      -4.020640
                                                         2.494033      -1.397569
                                                         0.988355      -0.076143
                                                         0.344978       0.033435
                                                         0.099466       0.026032

                          1       8    5fx3             10.077428      -0.467694
                                                         5.847736       0.618100
                                                         2.494033       0.066069
                                                         0.988355       0.262898
                                                         0.344978       0.004720
                                                         0.099466       0.007748
                          1       8    5fx2y            10.077428      -1.045795
                                                         5.847736       1.382114
                                                         2.494033       0.147734
                                                         0.988355       0.587859
                                                         0.344978       0.010555
                                                         0.099466       0.017325
                          1       8    5fx2z            10.077428      -1.045795
                                                         5.847736       1.382114
                                                         2.494033       0.147734
                                                         0.988355       0.587859
                                                         0.344978       0.010555
                                                         0.099466       0.017325
                          1       8    5fxy2            10.077428      -1.045795
                                                         5.847736       1.382114
                                                         2.494033       0.147734
                                                         0.988355       0.587859
                                                         0.344978       0.010555
                                                         0.099466       0.017325
                          1       8    5fxyz            10.077428      -1.811371
                                                         5.847736       2.393892
                                                         2.494033       0.255883
                                                         0.988355       1.018201
                                                         0.344978       0.018282
                                                         0.099466       0.030008
                          1       8    5fxz2            10.077428      -1.045795
                                                         5.847736       1.382114
                                                         2.494033       0.147734
                                                         0.988355       0.587859
                                                         0.344978       0.010555
                                                         0.099466       0.017325
                          1       8    5fy3             10.077428      -0.467694
                                                         5.847736       0.618100
                                                         2.494033       0.066069
                                                         0.988355       0.262898
                                                         0.344978       0.004720
                                                         0.099466       0.007748
                          1       8    5fy2z            10.077428      -1.045795
                                                         5.847736       1.382114
                                                         2.494033       0.147734
                                                         0.988355       0.587859
                                                         0.344978       0.010555
                                                         0.099466       0.017325
                          1       8    5fyz2            10.077428      -1.045795
                                                         5.847736       1.382114
                                                         2.494033       0.147734
                                                         0.988355       0.587859
                                                         0.344978       0.010555
                                                         0.099466       0.017325
                          1       8    5fz3             10.077428      -0.467694
                                                         5.847736       0.618100
                                                         2.494033       0.066069
                                                         0.988355       0.262898
                                                         0.344978       0.004720
                                                         0.099466       0.007748

     GTH Potential information for                                   GTH-PBE-q18

       Description:                       Goedecker-Teter-Hutter pseudopotential
                                           Goedecker et al., PRB 54, 1703 (1996)
                                          Hartwigsen et al., PRB 58, 3641 (1998)
                                                      Krack, TCA 114, 145 (2005)

       Gaussian exponent of the core charge distribution:               4.081633
       Electronic configuration (s p d ...):                           4   6   8

       Parameters of the local part of the GTH pseudopotential:

                          rloc        C1          C2          C3          C4
                        0.350000    2.102166    0.648484

       Parameters of the non-local part of the GTH pseudopotential:

                   l      r(l)      h(i,j,l)

                   0    0.261295    0.622658    9.970227
                                    9.970227  -12.871507
                   1    0.224253  -11.142708   12.429566
                                   12.429566  -14.706861
                   2    0.215348  -12.628146

  4. Atomic kind: O                                     Number of atoms:     100

     Orbital Basis Set                                     DZVP-MOLOPT-SR-GTH-q6

       Number of orbital shell sets:                                           1
       Number of orbital shells:                                               5
       Number of primitive Cartesian functions:                                5
       Number of Cartesian basis functions:                                   14
       Number of spherical basis functions:                                   13
       Norm type:                                                              2

       Normalised Cartesian orbitals:

                        Set   Shell   Orbital            Exponent    Coefficient

                          1       1    2s               10.389228       0.396646
                                                         3.849621       0.208811
                                                         1.388401      -0.301641
                                                         0.496955      -0.274061
                                                         0.162492      -0.033677

                          1       2    3s               10.389228       0.303673
                                                         3.849621       0.240943
                                                         1.388401      -0.313066
                                                         0.496955      -0.043055
                                                         0.162492       0.213991

                          1       3    3px              10.389228      -1.530415
                                                         3.849621      -1.371928
                                                         1.388401      -0.761951
                                                         0.496955      -0.253695
                                                         0.162492      -0.035541
                          1       3    3py              10.389228      -1.530415
                                                         3.849621      -1.371928
                                                         1.388401      -0.761951
                                                         0.496955      -0.253695
                                                         0.162492      -0.035541
                          1       3    3pz              10.389228      -1.530415
                                                         3.849621      -1.371928
                                                         1.388401      -0.761951
                                                         0.496955      -0.253695
                                                         0.162492      -0.035541

                          1       4    4px              10.389228      -0.565392
                                                         3.849621      -0.038231
                                                         1.388401      -0.382373
                                                         0.496955       0.179070
                                                         0.162492       0.122714
                          1       4    4py              10.389228      -0.565392
                                                         3.849621      -0.038231
                                                         1.388401      -0.382373
                                                         0.496955       0.179070
                                                         0.162492       0.122714
                          1       4    4pz              10.389228      -0.565392
                                                         3.849621      -0.038231
                                                         1.388401      -0.382373
                                                         0.496955       0.179070
                                                         0.162492       0.122714

                          1       5    4dx2             10.389228       1.867377
                                                         3.849621       0.670994
                                                         1.388401       1.353441
                                                         0.496955       0.273538
                                                         0.162492       0.006620
                          1       5    4dxy             10.389228       3.234392
                                                         3.849621       1.162195
                                                         1.388401       2.344229
                                                         0.496955       0.473781
                                                         0.162492       0.011466
                          1       5    4dxz             10.389228       3.234392
                                                         3.849621       1.162195
                                                         1.388401       2.344229
                                                         0.496955       0.473781
                                                         0.162492       0.011466
                          1       5    4dy2             10.389228       1.867377
                                                         3.849621       0.670994
                                                         1.388401       1.353441
                                                         0.496955       0.273538
                                                         0.162492       0.006620
                          1       5    4dyz             10.389228       3.234392
                                                         3.849621       1.162195
                                                         1.388401       2.344229
                                                         0.496955       0.473781
                                                         0.162492       0.011466
                          1       5    4dz2             10.389228       1.867377
                                                         3.849621       0.670994
                                                         1.388401       1.353441
                                                         0.496955       0.273538
                                                         0.162492       0.006620

     GTH Potential information for                                    GTH-PBE-q6

       Description:                       Goedecker-Teter-Hutter pseudopotential
                                           Goedecker et al., PRB 54, 1703 (1996)
                                          Hartwigsen et al., PRB 58, 3641 (1998)
                                                      Krack, TCA 114, 145 (2005)

       Gaussian exponent of the core charge distribution:               8.360253
       Electronic configuration (s p d ...):                               2   4

       Parameters of the local part of the GTH pseudopotential:

                          rloc        C1          C2          C3          C4
                        0.244554  -16.667215    2.487311

       Parameters of the non-local part of the GTH pseudopotential:

                   l      r(l)      h(i,j,l)

                   0    0.220956   18.337458
                   1    0.211332

  5. Atomic kind: Zr                                    Number of atoms:      18

     Orbital Basis Set                                    DZVP-MOLOPT-SR-GTH-q12

       Number of orbital shell sets:                                           1
       Number of orbital shells:                                               8
       Number of primitive Cartesian functions:                                7
       Number of Cartesian basis functions:                                   31
       Number of spherical basis functions:                                   26
       Norm type:                                                              2

       Normalised Cartesian orbitals:

                        Set   Shell   Orbital            Exponent    Coefficient

                          1       1    2s                7.568386      -0.292925
                                                         2.940870       1.053802
                                                         1.478550      -0.194175
                                                         0.699653      -0.477593
                                                         0.314575      -0.092850
                                                         0.129869       0.000474
                                                         0.046851      -0.000485

                          1       2    3s                7.568386      -0.107602
                                                         2.940870       0.453694
                                                         1.478550      -0.133469
                                                         0.699653      -0.242646
                                                         0.314575      -0.112324
                                                         0.129869       0.079936
                                                         0.046851       0.057275

                          1       3    4s                7.568386      -0.039443
                                                         2.940870      -0.239516
                                                         1.478550       0.462939
                                                         0.699653       0.054202
                                                         0.314575       0.378792
                                                         0.129869      -0.467495
                                                         0.046851       0.135277

                          1       4    3px               7.568386      -0.367032
                                                         2.940870       1.199938
                                                         1.478550      -0.729727
                                                         0.699653      -0.527717
                                                         0.314575      -0.102074
                                                         0.129869      -0.002163
                                                         0.046851      -0.000016
                          1       4    3py               7.568386      -0.367032
                                                         2.940870       1.199938
                                                         1.478550      -0.729727
                                                         0.699653      -0.527717
                                                         0.314575      -0.102074
                                                         0.129869      -0.002163
                                                         0.046851      -0.000016
                          1       4    3pz               7.568386      -0.367032
                                                         2.940870       1.199938
                                                         1.478550      -0.729727
                                                         0.699653      -0.527717
                                                         0.314575      -0.102074
                                                         0.129869      -0.002163
                                                         0.046851      -0.000016

                          1       5    4px               7.568386      -0.041149
                                                         2.940870       0.296409
                                                         1.478550      -0.285807
                                                         0.699653      -0.254468
                                                         0.314575       0.008755
                                                         0.129869       0.053085
                                                         0.046851       0.019526
                          1       5    4py               7.568386      -0.041149
                                                         2.940870       0.296409
                                                         1.478550      -0.285807
                                                         0.699653      -0.254468
                                                         0.314575       0.008755
                                                         0.129869       0.053085
                                                         0.046851       0.019526
                          1       5    4pz               7.568386      -0.041149
                                                         2.940870       0.296409
                                                         1.478550      -0.285807
                                                         0.699653      -0.254468
                                                         0.314575       0.008755
                                                         0.129869       0.053085
                                                         0.046851       0.019526

                          1       6    4dx2              7.568386      -0.104612
                                                         2.940870      -0.141339
                                                         1.478550       0.540679
                                                         0.699653       0.284252
                                                         0.314575       0.094561
                                                         0.129869       0.012195
                                                         0.046851       0.000412
                          1       6    4dxy              7.568386      -0.181193
                                                         2.940870      -0.244806
                                                         1.478550       0.936483
                                                         0.699653       0.492339
                                                         0.314575       0.163785
                                                         0.129869       0.021122
                                                         0.046851       0.000713
                          1       6    4dxz              7.568386      -0.181193
                                                         2.940870      -0.244806
                                                         1.478550       0.936483
                                                         0.699653       0.492339
                                                         0.314575       0.163785
                                                         0.129869       0.021122
                                                         0.046851       0.000713
                          1       6    4dy2              7.568386      -0.104612
                                                         2.940870      -0.141339
                                                         1.478550       0.540679
                                                         0.699653       0.284252
                                                         0.314575       0.094561
                                                         0.129869       0.012195
                                                         0.046851       0.000412
                          1       6    4dyz              7.568386      -0.181193
                                                         2.940870      -0.244806
                                                         1.478550       0.936483
                                                         0.699653       0.492339
                                                         0.314575       0.163785
                                                         0.129869       0.021122
                                                         0.046851       0.000713
                          1       6    4dz2              7.568386      -0.104612
                                                         2.940870      -0.141339
                                                         1.478550       0.540679
                                                         0.699653       0.284252
                                                         0.314575       0.094561
                                                         0.129869       0.012195
                                                         0.046851       0.000412

                          1       7    5dx2              7.568386      -0.107600
                                                         2.940870       0.230973
                                                         1.478550      -0.200541
                                                         0.699653      -0.193347
                                                         0.314575       0.007888
                                                         0.129869       0.006706
                                                         0.046851       0.006900
                          1       7    5dxy              7.568386      -0.186369
                                                         2.940870       0.400056
                                                         1.478550      -0.347346
                                                         0.699653      -0.334887
                                                         0.314575       0.013663
                                                         0.129869       0.011615
                                                         0.046851       0.011951
                          1       7    5dxz              7.568386      -0.186369
                                                         2.940870       0.400056
                                                         1.478550      -0.347346
                                                         0.699653      -0.334887
                                                         0.314575       0.013663
                                                         0.129869       0.011615
                                                         0.046851       0.011951
                          1       7    5dy2              7.568386      -0.107600
                                                         2.940870       0.230973
                                                         1.478550      -0.200541
                                                         0.699653      -0.193347
                                                         0.314575       0.007888
                                                         0.129869       0.006706
                                                         0.046851       0.006900
                          1       7    5dyz              7.568386      -0.186369
                                                         2.940870       0.400056
                                                         1.478550      -0.347346
                                                         0.699653      -0.334887
                                                         0.314575       0.013663
                                                         0.129869       0.011615
                                                         0.046851       0.011951
                          1       7    5dz2              7.568386      -0.107600
                                                         2.940870       0.230973
                                                         1.478550      -0.200541
                                                         0.699653      -0.193347
                                                         0.314575       0.007888
                                                         0.129869       0.006706
                                                         0.046851       0.006900

                          1       8    5fx3              7.568386       0.371480
                                                         2.940870      -0.155968
                                                         1.478550      -0.211323
                                                         0.699653      -0.255968
                                                         0.314575      -0.046738
                                                         0.129869      -0.005674
                                                         0.046851       0.000171
                          1       8    5fx2y             7.568386       0.830655
                                                         2.940870      -0.348756
                                                         1.478550      -0.472533
                                                         0.699653      -0.572361
                                                         0.314575      -0.104510
                                                         0.129869      -0.012687
                                                         0.046851       0.000382
                          1       8    5fx2z             7.568386       0.830655
                                                         2.940870      -0.348756
                                                         1.478550      -0.472533
                                                         0.699653      -0.572361
                                                         0.314575      -0.104510
                                                         0.129869      -0.012687
                                                         0.046851       0.000382
                          1       8    5fxy2             7.568386       0.830655
                                                         2.940870      -0.348756
                                                         1.478550      -0.472533
                                                         0.699653      -0.572361
                                                         0.314575      -0.104510
                                                         0.129869      -0.012687
                                                         0.046851       0.000382
                          1       8    5fxyz             7.568386       1.438737
                                                         2.940870      -0.604063
                                                         1.478550      -0.818452
                                                         0.699653      -0.991359
                                                         0.314575      -0.181017
                                                         0.129869      -0.021975
                                                         0.046851       0.000662
                          1       8    5fxz2             7.568386       0.830655
                                                         2.940870      -0.348756
                                                         1.478550      -0.472533
                                                         0.699653      -0.572361
                                                         0.314575      -0.104510
                                                         0.129869      -0.012687
                                                         0.046851       0.000382
                          1       8    5fy3              7.568386       0.371480
                                                         2.940870      -0.155968
                                                         1.478550      -0.211323
                                                         0.699653      -0.255968
                                                         0.314575      -0.046738
                                                         0.129869      -0.005674
                                                         0.046851       0.000171
                          1       8    5fy2z             7.568386       0.830655
                                                         2.940870      -0.348756
                                                         1.478550      -0.472533
                                                         0.699653      -0.572361
                                                         0.314575      -0.104510
                                                         0.129869      -0.012687
                                                         0.046851       0.000382
                          1       8    5fyz2             7.568386       0.830655
                                                         2.940870      -0.348756
                                                         1.478550      -0.472533
                                                         0.699653      -0.572361
                                                         0.314575      -0.104510
                                                         0.129869      -0.012687
                                                         0.046851       0.000382
                          1       8    5fz3              7.568386       0.371480
                                                         2.940870      -0.155968
                                                         1.478550      -0.211323
                                                         0.699653      -0.255968
                                                         0.314575      -0.046738
                                                         0.129869      -0.005674
                                                         0.046851       0.000171

     GTH Potential information for                                   GTH-PBE-q12

       Description:                       Goedecker-Teter-Hutter pseudopotential
                                           Goedecker et al., PRB 54, 1703 (1996)
                                          Hartwigsen et al., PRB 58, 3641 (1998)
                                                      Krack, TCA 114, 145 (2005)

       Gaussian exponent of the core charge distribution:               2.263468
       Electronic configuration (s p d ...):                           4   6   2

       Parameters of the local part of the GTH pseudopotential:

                          rloc        C1          C2          C3          C4
                        0.470000    7.796057   -1.893210

       Parameters of the non-local part of the GTH pseudopotential:

                   l      r(l)      h(i,j,l)

                   0    0.259829   23.380874   -8.571939
                                   -8.571939   11.066326
                   1    0.288969    8.592766   -5.377358
                                   -5.377358    6.362576
                   2    0.581245    0.027811    0.276862
                                    0.276862   -0.313932


 MOLECULE KIND INFORMATION


 All atoms are their own molecule, skipping detailed information


 TOTAL NUMBERS AND MAXIMUM NUMBERS

  Total number of            - Atomic kinds:                                   5
                             - Atoms:                                        570
                             - Shell sets:                                   570
                             - Shells:                                      2548
                             - Primitive Cartesian functions:               2890
                             - Cartesian basis functions:                   6698
                             - Spherical basis functions:                   6224

  Maximum angular momentum of- Orbital basis functions:                        3
                             - Local part of the GTH pseudopotential:          2
                             - Non-local part of the GTH pseudopotential:      4


 MODULE QUICKSTEP:  ATOMIC COORDINATES IN angstrom

  Atom  Kind  Element       X           Y           Z          Z(eff)       Mass

       1     1 C    6   11.858705   14.053447   21.731345      4.00      12.0107
       2     1 C    6   12.456140   12.890523   21.013036      4.00      12.0107
       3     1 C    6   11.704422   12.171587   20.071392      4.00      12.0107
       4     1 C    6   12.280764   11.109352   19.379072      4.00      12.0107
       5     1 C    6   13.621348   10.739526   19.606756      4.00      12.0107
       6     1 C    6   14.354566   11.443139   20.580161      4.00      12.0107
       7     1 C    6   13.781697   12.508123   21.271678      4.00      12.0107
       8     1 C    6   14.260770    9.648784   18.833368      4.00      12.0107
       9     1 C    6   14.255822    9.656553   17.411665      4.00      12.0107
      10     1 C    6   13.742686   10.758678   16.657747      4.00      12.0107
      11     1 C    6   49.126686   21.233300   21.869575      4.00      12.0107
      12     1 C    6   48.549820   22.401227   21.142511      4.00      12.0107
      13     1 C    6   49.299755   23.068351   20.161315      4.00      12.0107
      14     1 C    6   48.732813   24.107453   19.428072      4.00      12.0107
      15     1 C    6   47.402357   24.509255   19.656867      4.00      12.0107
      16     1 C    6   46.671524   23.860615   20.670621      4.00      12.0107
      17     1 C    6   47.233983   22.815735   21.400006      4.00      12.0107
      18     1 C    6   46.772082   25.586907   18.859573      4.00      12.0107
      19     1 C    6   46.760953   25.557211   17.437814      4.00      12.0107
      20     1 C    6   47.260864   24.442106   16.694320      4.00      12.0107
      21     1 C    6   14.859632    8.570144   16.698398      4.00      12.0107
      22     1 C    6   14.891695    8.596916   19.510015      4.00      12.0107
      23     1 C    6   49.113098   21.203398   10.145335      4.00      12.0107
      24     1 C    6   48.527648   22.364777   10.872476      4.00      12.0107
      25     1 C    6   49.266778   23.025323   11.865571      4.00      12.0107
      26     1 C    6   48.690439   24.059866   12.597047      4.00      12.0107
      27     1 C    6   47.360113   24.456812   12.358629      4.00      12.0107
      28     1 C    6   46.639830   23.812108   11.334881      4.00      12.0107
      29     1 C    6   47.213391   22.776210   10.603083      4.00      12.0107
      30     1 C    6   46.721603   25.531737   13.149667      4.00      12.0107
      31     1 C    6   46.733189   25.528021   14.571375      4.00      12.0107
      32     1 C    6   47.248593   24.428797   15.327766      4.00      12.0107
      33     1 C    6   40.615735   17.091965   15.311596      4.00      12.0107
      34     1 C    6   40.630190   17.100420   12.501655      4.00      12.0107
      35     1 C    6   11.882882   14.086405   10.285537      4.00      12.0107
      36     1 C    6   12.472001   12.910509   10.989665      4.00      12.0107
      37     1 C    6   11.714434   12.177437   11.915855      4.00      12.0107
      38     1 C    6   12.280907   11.094919   12.584248      4.00      12.0107
      39     1 C    6   13.619664   10.720968   12.352348      4.00      12.0107
      40     1 C    6   14.357666   11.436379   11.391445      4.00      12.0107
      41     1 C    6   13.792355   12.517610   10.718754      4.00      12.0107
      42     1 C    6   14.253161    9.624173   13.122784      4.00      12.0107
      43     1 C    6   14.251801    9.644100   14.544629      4.00      12.0107
      44     1 C    6   13.742046   10.753099   15.291702      4.00      12.0107
      45     1 C    6   22.512431    3.245339   21.741869      4.00      12.0107
      46     1 C    6   23.226937    4.350597   21.041444      4.00      12.0107
      47     1 C    6   24.223724    4.070549   20.094804      4.00      12.0107
      48     1 C    6   24.851041    5.109723   19.412169      4.00      12.0107
      49     1 C    6   24.497813    6.452206   19.654969      4.00      12.0107
      50     1 C    6   23.529151    6.723717   20.638665      4.00      12.0107
      51     1 C    6   22.897285    5.686381   21.319956      4.00      12.0107
      52     1 C    6   25.104535    7.558371   18.878493      4.00      12.0107
      53     1 C    6   25.080437    7.549679   17.456732      4.00      12.0107
      54     1 C    6   24.379539    6.549649   16.710512      4.00      12.0107
      55     1 C    6   38.297961   31.927843   21.841913      4.00      12.0107
      56     1 C    6   37.555694   30.839119   21.140737      4.00      12.0107
      57     1 C    6   36.589296   31.146702   20.170524      4.00      12.0107
      58     1 C    6   35.957921   30.129353   19.459912      4.00      12.0107
      59     1 C    6   36.277480   28.777772   19.695973      4.00      12.0107
      60     1 C    6   37.213236   28.477533   20.703989      4.00      12.0107
      61     1 C    6   37.848538   29.493961   21.414085      4.00      12.0107
      62     1 C    6   35.666655   27.690197   18.896291      4.00      12.0107
      63     1 C    6   35.707407   27.705638   17.474536      4.00      12.0107
      64     1 C    6   36.420885   28.706439   16.742111      4.00      12.0107
      65     1 C    6   25.705072    8.618701   16.736337      4.00      12.0107
      66     1 C    6   25.700280    8.634804   19.548170      4.00      12.0107
      67     1 C    6   38.330778   31.961130   10.160413      4.00      12.0107
      68     1 C    6   37.614204   30.888333   10.910669      4.00      12.0107
      69     1 C    6   36.681111   31.198847   11.912004      4.00      12.0107
      70     1 C    6   36.070626   30.182615   12.645174      4.00      12.0107
      71     1 C    6   36.378204   28.828895   12.401499      4.00      12.0107
      72     1 C    6   37.292684   28.528226   11.373191      4.00      12.0107
      73     1 C    6   37.904887   29.541059   10.641048      4.00      12.0107
      74     1 C    6   35.762003   27.731093   13.183331      4.00      12.0107
      75     1 C    6   35.755773   27.726843   14.606026      4.00      12.0107
      76     1 C    6   36.442573   28.717677   15.375701      4.00      12.0107
      77     1 C    6   46.135137   26.620639   15.281510      4.00      12.0107
      78     1 C    6   46.087737   26.580154   12.473618      4.00      12.0107
      79     1 C    6   22.462161    3.255938   10.257177      4.00      12.0107
      80     1 C    6   23.158938    4.363650   10.978369      4.00      12.0107
      81     1 C    6   24.162769    4.076034   11.916991      4.00      12.0107
      82     1 C    6   24.793673    5.105096   12.611802      4.00      12.0107
      83     1 C    6   24.440963    6.451562   12.390940      4.00      12.0107
      84     1 C    6   23.460358    6.732370   11.420606      4.00      12.0107
      85     1 C    6   22.824900    5.703614   10.726044      4.00      12.0107
      86     1 C    6   25.073755    7.548724   13.164819      4.00      12.0107
      87     1 C    6   25.065809    7.543622   14.587572      4.00      12.0107
      88     1 C    6   24.370520    6.547875   15.343866      4.00      12.0107
      89     1 C    6   26.564628   17.829131   21.775766      4.00      12.0107
      90     1 C    6   25.264179   17.889983   21.048729      4.00      12.0107
      91     1 C    6   25.011448   18.901112   20.108802      4.00      12.0107
      92     1 C    6   23.802586   18.930933   19.417732      4.00      12.0107
      93     1 C    6   22.813983   17.953285   19.646697      4.00      12.0107
      94     1 C    6   23.061990   16.965447   20.617871      4.00      12.0107
      95     1 C    6   24.272340   16.930193   21.306630      4.00      12.0107
      96     1 C    6   21.547555   17.947534   18.875744      4.00      12.0107
      97     1 C    6   21.556751   17.938648   17.453932      4.00      12.0107
      98     1 C    6   22.767061   17.817937   16.700894      4.00      12.0107
      99     1 C    6   34.420018   17.221663   21.902212      4.00      12.0107
     100     1 C    6   35.710085   17.161489   21.153973      4.00      12.0107
     101     1 C    6   35.911657   16.191907   20.158992      4.00      12.0107
     102     1 C    6   37.094646   16.171144   19.424591      4.00      12.0107
     103     1 C    6   38.109812   17.118359   19.664245      4.00      12.0107
     104     1 C    6   37.910107   18.068613   20.684040      4.00      12.0107
     105     1 C    6   36.725007   18.094701   21.415851      4.00      12.0107
     106     1 C    6   39.365863   17.120528   18.878703      4.00      12.0107
     107     1 C    6   39.360792   17.126606   17.456554      4.00      12.0107
     108     1 C    6   38.153795   17.247126   16.698320      4.00      12.0107
     109     1 C    6   20.313914   17.963453   16.740080      4.00      12.0107
     110     1 C    6   20.321224   17.942698   19.552930      4.00      12.0107
     111     1 C    6   34.435280   17.237195   10.188303      4.00      12.0107
     112     1 C    6   35.737533   17.134274   10.909635      4.00      12.0107
     113     1 C    6   35.939134   16.160127   11.898905      4.00      12.0107
     114     1 C    6   37.130315   16.128957   12.620541      4.00      12.0107
     115     1 C    6   38.149073   17.070423   12.373694      4.00      12.0107
     116     1 C    6   37.953476   18.016338   11.349622      4.00      12.0107
     117     1 C    6   36.762019   18.052779   10.631245      4.00      12.0107
     118     1 C    6   39.398670   17.087938   13.167410      4.00      12.0107
[...]
 VIB|Frequency (cm^-1)  1303.745427          1827.775992          3434.928765
 VIB|Intensities           0.000000             0.000000             0.000000
 VIB|Red.Masses (a.u.)     1.007969             1.007950             1.007941
 VIB|Frc consts (a.u.)     0.007456             0.028801             0.359235
  ATOM  EL             X     Y     Z        X     Y     Z        X     Y     Z  
   549  O            -0.00  0.00 -0.00     0.00 -0.00  0.00    -0.00  0.00 -0.00
   550  O            -0.00  0.00 -0.00     0.00  0.00 -0.00    -0.00  0.00 -0.00
   551  Zr           -0.00 -0.00  0.00    -0.00  0.00 -0.00     0.00 -0.00  0.00
   552  Zr           -0.00 -0.00  0.00    -0.00  0.00  0.00     0.00 -0.00  0.00
   553  Zr            0.00  0.00 -0.00     0.00  0.00 -0.00     0.00  0.00 -0.00
   554  Zr            0.00  0.00  0.00     0.00  0.00  0.00     0.00  0.00  0.00
   555  Zr           -0.00 -0.00  0.00     0.00  0.00  0.00     0.00  0.00  0.00
   556  Zr            0.00 -0.00  0.00    -0.00 -0.00  0.00    -0.00 -0.00 -0.00
   557  Zr           -0.00 -0.00 -0.00    -0.00  0.00 -0.00     0.00 -0.00  0.00
   558  Zr           -0.00 -0.00  0.00    -0.00  0.00  0.00     0.00 -0.00 -0.00
   559  Zr            0.00 -0.00  0.00    -0.00 -0.00  0.00    -0.00 -0.00 -0.00
   560  Zr           -0.00 -0.00 -0.00     0.00 -0.00  0.00    -0.00 -0.00  0.00
   561  Zr            0.00  0.00 -0.00     0.00  0.00  0.00     0.00  0.00 -0.00
   562  Zr            0.00  0.00  0.00     0.00  0.00  0.00     0.00  0.00 -0.00
   563  Zr           -0.00  0.00 -0.00    -0.00 -0.00  0.00     0.00  0.00 -0.00
   564  Zr           -0.00 -0.00  0.00    -0.00 -0.00 -0.00     0.00 -0.00 -0.00
   565  Zr            0.00  0.00 -0.00     0.00  0.00  0.00     0.00  0.00 -0.00
   566  Zr            0.00  0.00  0.00     0.00  0.00 -0.00     0.00  0.00  0.00
   567  Zr           -0.00 -0.00 -0.00     0.00 -0.00  0.00    -0.00 -0.00 -0.00
   568  Zr            0.00 -0.00  0.00     0.00 -0.00  0.00     0.00 -0.00  0.00
   569  H             0.06 -0.03  0.11    -0.01 -0.01  0.00    -0.40 -0.91 -0.02
   570  H            -0.83  0.46 -0.29     0.42  0.19 -0.89    -0.00  0.00  0.01



 -------------------------------------------------------------------------------
 -                                                                             -
 -                                DBCSR STATISTICS                             -
 -                                                                             -
 -------------------------------------------------------------------------------
 COUNTER                                    TOTAL       BLAS       SMM       ACC
 flops    26 x     8 x     8              9737728       0.0%    100.0%      0.0%
 flops     5 x     8 x     8             15662080       0.0%    100.0%      0.0%
 flops    13 x     8 x     8             80557568       0.0%    100.0%      0.0%
 flops    26 x    32 x    32           5141520384       0.0%    100.0%      0.0%
 flops     5 x    32 x    32           8269578240       0.0%    100.0%      0.0%
 flops    26 x     8 x    26          14523897856       0.0%    100.0%      0.0%
 flops    26 x     8 x     5          23090724800       0.0%    100.0%      0.0%
 flops     5 x     8 x    26          23090724800       0.0%    100.0%      0.0%
 flops     5 x     8 x     5          28426055200       0.0%    100.0%      0.0%
 flops    13 x    32 x    32          42534395904       0.0%    100.0%      0.0%
 flops    26 x     8 x    13         111965479808       0.0%    100.0%      0.0%
 flops    13 x     8 x    26         111965479808       0.0%    100.0%      0.0%
 flops     5 x     8 x    13         125724573520       0.0%    100.0%      0.0%
 flops    13 x     8 x     5         125724573520       0.0%    100.0%      0.0%
 flops    26 x    26 x   264         141111841728       0.0%    100.0%      0.0%
 flops    26 x    26 x   288         153940190976       0.0%    100.0%      0.0%
 flops    26 x     5 x   264         204703493280       0.0%    100.0%      0.0%
 flops     5 x    26 x   264         205125080160       0.0%    100.0%      0.0%
 flops    26 x     5 x   288         223312901760       0.0%    100.0%      0.0%
 flops     5 x    26 x   288         223772814720       0.0%    100.0%      0.0%
 flops     5 x     5 x   264         256042010400       0.0%    100.0%      0.0%
 flops    26 x    26 x   256         273671450624       0.0%    100.0%      0.0%
 flops     5 x     5 x   288         279318556800       0.0%    100.0%      0.0%
 flops   264 x   264 x   264         387793004544       0.0%    100.0%      0.0%
 flops    26 x     5 x   256         397000714240       0.0%    100.0%      0.0%
 flops     5 x    26 x   256         397818337280       0.0%    100.0%      0.0%
 flops   264 x   264 x   288         423046914048       0.0%    100.0%      0.0%
 flops   264 x   288 x   264         423046914048       0.0%    100.0%      0.0%
 flops   288 x   264 x   264         423046914048       0.0%    100.0%      0.0%
 flops   288 x   288 x   264         461505724416       0.0%    100.0%      0.0%
 flops   264 x   288 x   288         461505724416       0.0%    100.0%      0.0%
 flops   288 x   264 x   288         461505724416       0.0%    100.0%      0.0%
 flops     5 x     5 x   256         496566323200       0.0%    100.0%      0.0%
 flops   288 x   288 x   288         503460790272       0.0%    100.0%      0.0%
 flops    13 x     8 x    13         526334789760       0.0%    100.0%      0.0%
 flops   256 x   264 x   264         752083402752       0.0%    100.0%      0.0%
 flops   264 x   256 x   264         752083402752       0.0%    100.0%      0.0%
 flops   264 x   264 x   256         752083402752       0.0%    100.0%      0.0%
 flops   256 x   264 x   288         820454621184       0.0%    100.0%      0.0%
 flops   256 x   288 x   264         820454621184       0.0%    100.0%      0.0%
 flops   264 x   256 x   288         820454621184       0.0%    100.0%      0.0%
 flops   264 x   288 x   256         820454621184       0.0%    100.0%      0.0%
 flops   288 x   256 x   264         820454621184       0.0%    100.0%      0.0%
 flops   288 x   264 x   256         820454621184       0.0%    100.0%      0.0%
 flops   288 x   288 x   256         895041404928       0.0%    100.0%      0.0%
 flops   256 x   288 x   288         895041404928       0.0%    100.0%      0.0%
 flops   288 x   256 x   288         895041404928       0.0%    100.0%      0.0%
 flops    26 x    13 x   264         991664662560       0.0%    100.0%      0.0%
 flops    13 x    26 x   264         995567848704       0.0%    100.0%      0.0%
 flops    26 x    13 x   288        1081815995520       0.0%    100.0%      0.0%
 flops    13 x    26 x   288        1086074016768       0.0%    100.0%      0.0%
 flops     5 x    13 x   264        1115302256640       0.0%    100.0%      0.0%
 flops    13 x     5 x   264        1116138257520       0.0%    100.0%      0.0%
 flops     5 x    13 x   288        1216693370880       0.0%    100.0%      0.0%
 flops    13 x     5 x   288        1217605371840       0.0%    100.0%      0.0%
 flops   256 x   256 x   264        1458585993216       0.0%    100.0%      0.0%
 flops   256 x   264 x   256        1458585993216       0.0%    100.0%      0.0%
 flops   264 x   256 x   256        1458585993216       0.0%    100.0%      0.0%
 flops   256 x   256 x   288        1591184719872       0.0%    100.0%      0.0%
 flops   256 x   288 x   256        1591184719872       0.0%    100.0%      0.0%
 flops   288 x   256 x   256        1591184719872       0.0%    100.0%      0.0%
 flops    26 x    32 x    26        1917154516992       0.0%    100.0%      0.0%
 flops    26 x    13 x   256        1923228436480       0.0%    100.0%      0.0%
 flops    13 x    26 x   256        1930798252032       0.0%    100.0%      0.0%
 flops     5 x    13 x   256        2163010437120       0.0%    100.0%      0.0%
 flops    13 x     5 x   256        2164631772160       0.0%    100.0%      0.0%
 flops   256 x   256 x   256        2828772835328       0.0%    100.0%      0.0%
 flops    26 x    32 x     5        3047975673600       0.0%    100.0%      0.0%
 flops     5 x    32 x    26        3047975673600       0.0%    100.0%      0.0%
 flops     5 x    32 x     5        3752239286400       0.0%    100.0%      0.0%
 flops    13 x    13 x   264        4721413334352       0.0%    100.0%      0.0%
 flops    13 x    13 x   288        5150632728384       0.0%    100.0%      0.0%
 flops   264 x   264 x  1556        6463439769600       0.0%    100.0%      0.0%
 flops   264 x   288 x  1556        7051025203200       0.0%    100.0%      0.0%
 flops   288 x   264 x  1556        7051025203200       0.0%    100.0%      0.0%
 flops   288 x   288 x  1556        7692027494400       0.0%    100.0%      0.0%
 flops  1556 x   264 x   264        8818040512512       0.0%    100.0%      0.0%
 flops    13 x    13 x   256        9156680406016       0.0%    100.0%      0.0%
 flops  1556 x   288 x   264        9619680559104       0.0%    100.0%      0.0%
 flops  1556 x   264 x   288        9619680559104       0.0%    100.0%      0.0%
 flops  1556 x   288 x   288       10494196973568       0.0%    100.0%      0.0%
 flops   256 x   264 x  1556       12535155916800       0.0%    100.0%      0.0%
 flops   264 x   256 x  1556       12535155916800       0.0%    100.0%      0.0%
 flops   256 x   288 x  1556       13674715545600       0.0%    100.0%      0.0%
 flops   288 x   256 x  1556       13674715545600       0.0%    100.0%      0.0%
 flops    26 x    32 x    13       14779443334656       0.0%    100.0%      0.0%
 flops    13 x    32 x    26       14779443334656       0.0%    100.0%      0.0%
 flops     5 x    32 x    13       16595643704640       0.0%    100.0%      0.0%
 flops    13 x    32 x     5       16595643704640       0.0%    100.0%      0.0%
 flops  1556 x   256 x   264       17101654327296       0.0%    100.0%      0.0%
 flops  1556 x   264 x   256       17101654327296       0.0%    100.0%      0.0%
 flops  1556 x   288 x   256       18656350175232       0.0%    100.0%      0.0%
 flops  1556 x   256 x   288       18656350175232       0.0%    100.0%      0.0%
 flops   256 x   256 x  1556       24310605414400       0.0%    100.0%      0.0%
 flops  1556 x   256 x   256       33166844755968       0.0%    100.0%      0.0%
 flops  1556 x   264 x  1556       66392894988288       0.0%    100.0%      0.0%
 flops    13 x    32 x    13       69476192248320       0.0%    100.0%      0.0%
 flops  1556 x   288 x  1556       72428612714496       0.0%    100.0%      0.0%
 flops  1556 x   256 x  1556      128761978159104       0.0%    100.0%      0.0%
 flops inhomo. stacks                           0       0.0%      0.0%      0.0%
 flops total                       725.615153E+12       0.0%    100.0%      0.0%
 flops max/rank                     49.657661E+12       0.0%    100.0%      0.0%
 matmuls inhomo. stacks                         0       0.0%      0.0%      0.0%
 matmuls total                        20087079116       0.0%    100.0%      0.0%
 number of processed stacks              26903064       0.0%    100.0%      0.0%
 average stack size                                     0.0     746.6       0.0
 marketing flops                     1.278598E+15
 -------------------------------------------------------------------------------
 # multiplications                          40565
 max memory usage/rank               1.792471E+09
 # max total images/rank                        1
 # max 3D layers                                1
 # MPI messages exchanged                 3894240
 MPI messages size (bytes):
  total size                        11.927250E+12
  min size                           0.000000E+00
  max size                          19.369088E+06
  average size                       3.062793E+06
 MPI breakdown and total messages size (bytes):
             size <=      128               17556                        0
       128 < size <=     8192                   0                        0
      8192 < size <=    32768                   0                        0
     32768 < size <=   131072                1596                108068352
    131072 < size <=  4194304             3441456            7278876638208
   4194304 < size <= 16777216              277824            1636269448608
  16777216 < size                          155808            3017858863104
 -------------------------------------------------------------------------------
 -                                                                             -
 -                      DBCSR MESSAGE PASSING PERFORMANCE                      -
 -                                                                             -
 -------------------------------------------------------------------------------
 ROUTINE             CALLS      AVE VOLUME [Bytes]
 MP_Group             2929
 MP_Bcast              100                     12.
 MP_Allreduce       203760                     29.
 MP_Alltoall        152792                 546335.
 MP_Wait           1947120
 MP_ISend           648508                1203459.
 MP_IRecv           648508                1189284.
 MP_Memory         1477078
 -------------------------------------------------------------------------------

 MEMORY| Estimated peak process memory [MiB]                                1710

 -------------------------------------------------------------------------------
 ----                             MULTIGRID INFO                            ----
 -------------------------------------------------------------------------------
 count for grid        1:        1657680          cutoff [a.u.]          180.00
 count for grid        2:         393520          cutoff [a.u.]           60.00
 count for grid        3:         224320          cutoff [a.u.]           20.00
 count for grid        4:          22240          cutoff [a.u.]            6.67
 count for grid        5:            640          cutoff [a.u.]            2.22
 total gridlevel count  :        2298400

 -------------------------------------------------------------------------------
 -                                                                             -
 -                         MESSAGE PASSING PERFORMANCE                         -
 -                                                                             -
 -------------------------------------------------------------------------------

 ROUTINE             CALLS      AVE VOLUME [Bytes]
 MP_Group                6
 MP_Bcast             1235                6812854.
 MP_Allreduce           87                  18983.
 MP_Sync                 5
 -------------------------------------------------------------------------------


 -------------------------------------------------------------------------------
 -                                                                             -
 -                           R E F E R E N C E S                               -
 -                                                                             -
 -------------------------------------------------------------------------------
 
 CP2K version 7.1, the CP2K developers group (2019).
 CP2K is freely available from https://www.cp2k.org/ .

 Schuett, Ole; Messmer, Peter; Hutter, Juerg; VandeVondele, Joost. 
 Electronic Structure Calculations on Graphics Processing Units, John
 Wiley & Sons, Ltd, 173-190 (2016). 
 GPU-Accelerated Sparse Matrix-Matrix Multiplication for
 Linear Scaling Density Functional Theory.
 https://dx.doi.org/10.1002/9781118670712.ch8

 Borstnik, U; VandeVondele, J; Weber, V; Hutter, J. 
 PARALLEL COMPUTING, 40 (5-6), 47-58 (2014). 
 Sparse matrix multiplication: The distributed block-compressed sparse
 row library.
 https://dx.doi.org/10.1016/j.parco.2014.03.012

 Hutter, J; Iannuzzi, M; Schiffmann, F; VandeVondele, J. 
 WIREs Comput Mol Sci., 4 (1), 15-25 (2014). 
 CP2K: atomistic simulations of condensed matter systems.
 https://dx.doi.org/10.1002/wcms.1159

 Grimme, S; Ehrlich, S; Goerigk, L. 
 JOURNAL OF COMPUTATIONAL CHEMISTRY, 32, 1456 (2011). 
 Effect of the damping function in dispersion corrected density functional theory.
 https://dx.doi.org/10.1002/jcc.21759

 Grimme, S; Antony, J; Ehrlich, S; Krieg, H. 
 JOURNAL OF CHEMICAL PHYSICS, 132 (15), 154104 (2010). 
 A consistent and accurate ab initio parametrization of density
 functional dispersion correction (DFT-D) for the 94 elements H-Pu.
 https://dx.doi.org/10.1063/1.3382344

 VandeVondele, J; Hutter, J. 
 JOURNAL OF CHEMICAL PHYSICS, 127 (11), 114105 (2007). 
 Gaussian basis sets for accurate calculations on molecular systems in
 gas and condensed phases.
 https://dx.doi.org/10.1063/1.2770708

 Krack, M. 
 THEORETICAL CHEMISTRY ACCOUNTS, 114 (1-3), 145-152 (2005). 
 Pseudopotentials for H to Kr optimized for gradient-corrected
 exchange-correlation functionals.
 https://dx.doi.org/10.1007/s00214-005-0655-y

 VandeVondele, J; Krack, M; Mohamed, F; Parrinello, M; Chassaing, T;
 Hutter, J. COMPUTER PHYSICS COMMUNICATIONS, 167 (2), 103-128 (2005). 
 QUICKSTEP: Fast and accurate density functional calculations using a
 mixed Gaussian and plane waves approach.
 https://dx.doi.org/10.1016/j.cpc.2004.12.014

 Frigo, M; Johnson, SG. 
 PROCEEDINGS OF THE IEEE, 93 (2), 216-231 (2005). 
 The design and implementation of FFTW3.
 https://dx.doi.org/10.1109/JPROC.2004.840301

 Kolafa, J. 
 JOURNAL OF COMPUTATIONAL CHEMISTRY, 25 (3), 335-342 (2004). 
 Time-reversible always stable predictor-corrector method for molecular dynamics of polarizable molecules.
 https://dx.doi.org/10.1002/jcc.10385

 VandeVondele, J; Hutter, J. 
 JOURNAL OF CHEMICAL PHYSICS, 118 (10), 4365-4369 (2003). 
 An efficient orbital transformation method for electronic structure
 calculations.
 https://dx.doi.org/10.1063/1.1543154

 Hartwigsen, C; Goedecker, S; Hutter, J. 
 PHYSICAL REVIEW B, 58 (7), 3641-3662 (1998). 
 Relativistic separable dual-space Gaussian pseudopotentials from H to Rn.
 https://dx.doi.org/10.1103/PhysRevB.58.3641

 Lippert, G; Hutter, J; Parrinello, M. 
 MOLECULAR PHYSICS, 92 (3), 477-487 (1997). 
 A hybrid Gaussian and plane wave density functional scheme.
 https://dx.doi.org/10.1080/002689797170220

 Perdew, JP; Burke, K; Ernzerhof, M. 
 PHYSICAL REVIEW LETTERS, 77 (18), 3865-3868 (1996). 
 Generalized gradient approximation made simple.
 https://dx.doi.org/10.1103/PhysRevLett.77.3865

 Goedecker, S; Teter, M; Hutter, J. 
 PHYSICAL REVIEW B, 54 (3), 1703-1710 (1996). 
 Separable dual-space Gaussian pseudopotentials.
 https://dx.doi.org/10.1103/PhysRevB.54.1703


 -------------------------------------------------------------------------------
 -                                                                             -
 -                                T I M I N G                                  -
 -                                                                             -
 -------------------------------------------------------------------------------
 SUBROUTINE                       CALLS  ASD         SELF TIME        TOTAL TIME
                                MAXIMUM       AVERAGE  MAXIMUM  AVERAGE  MAXIMUM
 CP2K                                 1  1.0     0.01     0.01 56619.08 56619.24
 vb_anal                              1  2.0 56614.66 56614.92 56616.91 56617.07
 -------------------------------------------------------------------------------

 The number of warnings for this run is : 0
 
 -------------------------------------------------------------------------------
  **** **** ******  **  PROGRAM ENDED AT                 2021-11-26 03:13:33.221
 ***** ** ***  *** **   PROGRAM RAN ON             node1945.palmetto.clemson.edu
 **    ****   ******    PROGRAM RAN BY                                   svicchi
 ***** **    ** ** **   PROGRAM PROCESS ID                               1738418
  **** **  *******  **  PROGRAM STOPPED IN  /scratch2/svicchi/CP2K-4057813.pbs02
