 DBCSR| CPU Multiplication driver                                           XSMM
 DBCSR| Multrec recursion limit                                              512
 DBCSR| Multiplication stack size                                           1000
 DBCSR| Maximum elements for images                                    UNLIMITED
 DBCSR| Multiplicative factor virtual images                                   1
 DBCSR| Use multiplication densification                                       T
 DBCSR| Multiplication size stacks                                             3
 DBCSR| Number of 3D layers                                               SINGLE
 DBCSR| Use MPI memory allocation                                              T
 DBCSR| Use RMA algorithm                                                      F
 DBCSR| Use Communication thread                                               T
 DBCSR| Communication thread load                                             87


  **** **** ******  **  PROGRAM STARTED AT               2021-11-19 14:45:10.112
 ***** ** ***  *** **   PROGRAM STARTED ON         node0023.palmetto.clemson.edu
 **    ****   ******    PROGRAM STARTED BY                               svicchi
 ***** **    ** ** **   PROGRAM PROCESS ID                               1377946
  **** **  *******  **  PROGRAM STARTED IN  /scratch2/svicchi/CP2K-4048800.pbs02

 CP2K| version string:                                          CP2K version 7.1
 CP2K| source code revision number:                                  git:e635599
 CP2K| cp2kflags: libint fftw3 libxc parallel mpi3 scalapack xsmm               
 CP2K| is freely available from                            https://www.cp2k.org/
 CP2K| Program compiled at                          Wed Aug 12 10:01:37 EDT 2020
 CP2K| Program compiled on                           util02.palmetto.clemson.edu
 CP2K| Program compiled for                          linux-centos8-ivybridge-gcc
 CP2K| Data directory path    /software/spackages/linux-centos8-ivybridge/gcc-8.
 CP2K| Input file name                 014_Zr18_C264_Ni4_O96_H178_UKS-multi5.inp

 GLOBAL| Force Environment number                                              1
 GLOBAL| Basis set file name                                          BASIS_file
 GLOBAL| Potential file name                                     POTENTIALS_file
 GLOBAL| MM Potential file name                                     MM_POTENTIAL
 GLOBAL| Coordinate file name           014_Zr18_C264_Ni4_O96_H178_UKS-multi5.xy
 GLOBAL| Method name                                                        CP2K
 GLOBAL| Project name                   info-000-014_Zr18_C264_Ni4_O96_H178_UKS-
 GLOBAL| Preferred FFT library                                             FFTW3
 GLOBAL| Preferred diagonalization lib.                                       SL
 GLOBAL| Run type                                           VIBRATIONAL_ANALYSIS
 GLOBAL| All-to-all communication in single precision                          F
 GLOBAL| FFTs using library dependent lengths                                  F
 GLOBAL| Global print level                                               MEDIUM
 GLOBAL| MPI I/O enabled                                                       T
 GLOBAL| Total number of message passing processes                            16
 GLOBAL| Number of threads for this process                                    1
 GLOBAL| This output is from process                                           0
 GLOBAL| CPU model name                Intel(R) Xeon(R) CPU E5-2680 v3 @ 2.50GHz
 GLOBAL| CPUID                                                              1002
 GLOBAL| Compiled for CPUID                                                 1001

 MEMORY| system memory details [Kb]
 MEMORY|                        rank 0           min           max       average
 MEMORY| MemTotal            131623408     131623408     131623408     131623408
 MEMORY| MemFree             102481672     102445508     102483748     102465138
 MEMORY| Buffers                  7436          7436          7436          7436
 MEMORY| Cached               23739724      23739724      23739724      23739724
 MEMORY| Slab                  2565936       2565936       2565936       2565936
 MEMORY| SReclaimable          1961092       1961092       1961092       1961092
 MEMORY| MemLikelyFree       128189924     128153760     128192000     128173390


 *** Fundamental physical constants (SI units) ***

 *** Literature: B. J. Mohr and B. N. Taylor,
 ***             CODATA recommended values of the fundamental physical
 ***             constants: 2006, Web Version 5.1
 ***             http://physics.nist.gov/constants

 Speed of light in vacuum [m/s]                             2.99792458000000E+08
 Magnetic constant or permeability of vacuum [N/A**2]       1.25663706143592E-06
 Electric constant or permittivity of vacuum [F/m]          8.85418781762039E-12
 Planck constant (h) [J*s]                                  6.62606896000000E-34
 Planck constant (h-bar) [J*s]                              1.05457162825177E-34
 Elementary charge [C]                                      1.60217648700000E-19
 Electron mass [kg]                                         9.10938215000000E-31
 Electron g factor [ ]                                     -2.00231930436220E+00
 Proton mass [kg]                                           1.67262163700000E-27
 Fine-structure constant                                    7.29735253760000E-03
 Rydberg constant [1/m]                                     1.09737315685270E+07
 Avogadro constant [1/mol]                                  6.02214179000000E+23
 Boltzmann constant [J/K]                                   1.38065040000000E-23
 Atomic mass unit [kg]                                      1.66053878200000E-27
 Bohr radius [m]                                            5.29177208590000E-11

 *** Conversion factors ***

 [u] -> [a.u.]                                              1.82288848426455E+03
 [Angstrom] -> [Bohr] = [a.u.]                              1.88972613288564E+00
 [a.u.] = [Bohr] -> [Angstrom]                              5.29177208590000E-01
 [a.u.] -> [s]                                              2.41888432650478E-17
 [a.u.] -> [fs]                                             2.41888432650478E-02
 [a.u.] -> [J]                                              4.35974393937059E-18
 [a.u.] -> [N]                                              8.23872205491840E-08
 [a.u.] -> [K]                                              3.15774647902944E+05
 [a.u.] -> [kJ/mol]                                         2.62549961709828E+03
 [a.u.] -> [kcal/mol]                                       6.27509468713739E+02
 [a.u.] -> [Pa]                                             2.94210107994716E+13
 [a.u.] -> [bar]                                            2.94210107994716E+08
 [a.u.] -> [atm]                                            2.90362800883016E+08
 [a.u.] -> [eV]                                             2.72113838565563E+01
 [a.u.] -> [Hz]                                             6.57968392072181E+15
 [a.u.] -> [1/cm] (wave numbers)                            2.19474631370540E+05
 [a.u./Bohr**2] -> [1/cm]                                   5.14048714338585E+03
 

 CELL_TOP| Volume [angstrom^3]:                                        22838.217
 CELL_TOP| Vector a [angstrom    40.611     0.000     0.000    |a| =      40.611
 CELL_TOP| Vector b [angstrom    20.305    35.170     0.000    |b| =      40.611
 CELL_TOP| Vector c [angstrom     0.000     0.000    15.990    |c| =      15.990
 CELL_TOP| Angle (b,c), alpha [degree]:                                   90.000
 CELL_TOP| Angle (a,c), beta  [degree]:                                   90.000
 CELL_TOP| Angle (a,b), gamma [degree]:                                   60.000
 CELL_TOP| Requested initial symmetry:                       MONOCLINIC_GAMMA_AB
 CELL_TOP| Numerically orthorhombic:                                          NO

 CELL| Volume [angstrom^3]:                                            22838.217
 CELL| Vector a [angstrom]:      40.611     0.000     0.000    |a| =      40.611
 CELL| Vector b [angstrom]:      20.305    35.170     0.000    |b| =      40.611
 CELL| Vector c [angstrom]:       0.000     0.000    15.990    |c| =      15.990
 CELL| Angle (b,c), alpha [degree]:                                       90.000
 CELL| Angle (a,c), beta  [degree]:                                       90.000
 CELL| Angle (a,b), gamma [degree]:                                       60.000
 CELL| Requested initial symmetry:                           MONOCLINIC_GAMMA_AB
 CELL| Numerically orthorhombic:                                              NO

 CELL_REF| Volume [angstrom^3]:                                        22838.217
 CELL_REF| Vector a [angstrom    40.611     0.000     0.000    |a| =      40.611
 CELL_REF| Vector b [angstrom    20.305    35.170     0.000    |b| =      40.611
 CELL_REF| Vector c [angstrom     0.000     0.000    15.990    |c| =      15.990
 CELL_REF| Angle (b,c), alpha [degree]:                                   90.000
 CELL_REF| Angle (a,c), beta  [degree]:                                   90.000
 CELL_REF| Angle (a,b), gamma [degree]:                                   60.000
 CELL_REF| Requested initial symmetry:                       MONOCLINIC_GAMMA_AB
 CELL_REF| Numerically orthorhombic:                                          NO

 *******************************************************************************
 *******************************************************************************
 **                                                                           **
 **     #####                         ##              ##                      **
 **    ##   ##            ##          ##              ##                      **
 **   ##     ##                       ##            ######                    **
 **   ##     ##  ##   ##  ##   #####  ##  ##   ####   ##    #####    #####    **
 **   ##     ##  ##   ##  ##  ##      ## ##   ##      ##   ##   ##  ##   ##   **
 **   ##  ## ##  ##   ##  ##  ##      ####     ###    ##   ######   ######    **
 **    ##  ###   ##   ##  ##  ##      ## ##      ##   ##   ##       ##        **
 **     #######   #####   ##   #####  ##  ##  ####    ##    #####   ##        **
 **           ##                                                    ##        **
 **                                                                           **
 **                                                ... make the atoms dance   **
 **                                                                           **
 **            Copyright (C) by CP2K developers group (2000 - 2019)           **
 **                                                                           **
 *******************************************************************************

 DFT| Spin unrestricted (spin-polarized) Kohn-Sham calculation               UKS
 DFT| Multiplicity                                                             5
 DFT| Number of spin states                                                    2
 DFT| Charge                                                                   0
 DFT| Self-interaction correction (SIC)                                       NO
 DFT| Cutoffs: density                                              1.000000E-10
 DFT|          gradient                                             1.000000E-10
 DFT|          tau                                                  1.000000E-10
 DFT|          cutoff_smoothing_range                               0.000000E+00
 DFT| XC density smoothing                                                  NONE
 DFT| XC derivatives                                                          PW
 FUNCTIONAL| ROUTINE=NEW
 FUNCTIONAL| PBE:
 FUNCTIONAL| J.P.Perdew, K.Burke, M.Ernzerhof, Phys. Rev. Letter, vol. 77, n 18,
 FUNCTIONAL|  pp. 3865-3868, (1996){spin polarized}                             
 vdW POTENTIAL|                                                   Pair Potential
 vdW POTENTIAL|          DFT-D3 (Version 3.1)
 vdW POTENTIAL|          Potential Form: S. Grimme et al, JCP 132: 154104 (2010)
 vdW POTENTIAL|          BJ Damping: S. Grimme et al, JCC 32: 1456 (2011)
 vdW POTENTIAL|          Cutoff Radius [Bohr]:                             20.00
 vdW POTENTIAL|          s6 Scaling Factor:                               1.0000
 vdW POTENTIAL|          a1 Damping Factor:                               0.4289
 vdW POTENTIAL|          s8 Scaling Factor:                               0.7875
 vdW POTENTIAL|          a2 Damping Factor:                               4.4407
 vdW POTENTIAL|          Cutoff for CN calculation:                   0.1000E-05

 QS| Method:                                                                 GPW
 QS| Density plane wave grid type                        NON-SPHERICAL FULLSPACE
 QS| Number of grid levels:                                                    5
 QS| Density cutoff [a.u.]:                                                180.0
 QS| Multi grid cutoff [a.u.]: 1) grid level                               180.0
 QS|                           2) grid level                                60.0
 QS|                           3) grid level                                20.0
 QS|                           4) grid level                                 6.7
 QS|                           5) grid level                                 2.2
 QS| Grid level progression factor:                                          3.0
 QS| Relative density cutoff [a.u.]:                                        40.0
 QS| Consistent realspace mapping and integration 
 QS| Interaction thresholds: eps_pgf_orb:                                1.0E-05
 QS|                         eps_filter_matrix:                          0.0E+00
 QS|                         eps_core_charge:                            1.0E-12
 QS|                         eps_rho_gspace:                             1.0E-10
 QS|                         eps_rho_rspace:                             1.0E-10
 QS|                         eps_gvg_rspace:                             1.0E-05
 QS|                         eps_ppl:                                    1.0E-02
 QS|                         eps_ppnl:                                   1.0E-07


 ATOMIC KIND INFORMATION

  1. Atomic kind: C                                     Number of atoms:     264

     Orbital Basis Set                                     DZVP-MOLOPT-SR-GTH-q4

       Number of orbital shell sets:                                           1
       Number of orbital shells:                                               5
       Number of primitive Cartesian functions:                                5
       Number of Cartesian basis functions:                                   14
       Number of spherical basis functions:                                   13
       Norm type:                                                              2

       Normalised Cartesian orbitals:

                        Set   Shell   Orbital            Exponent    Coefficient

                          1       1    2s                5.605331       0.322515
                                                         2.113016       0.213043
                                                         0.769911      -0.209686
                                                         0.348157      -0.219794
                                                         0.128212      -0.022789

                          1       2    3s                5.605331       0.552234
                                                         2.113016       0.082072
                                                         0.769911       0.007843
                                                         0.348157       0.136893
                                                         0.128212       0.074283

                          1       3    3px               5.605331      -0.703879
                                                         2.113016      -0.642521
                                                         0.769911      -0.374851
                                                         0.348157      -0.139743
                                                         0.128212      -0.027849
                          1       3    3py               5.605331      -0.703879
                                                         2.113016      -0.642521
                                                         0.769911      -0.374851
                                                         0.348157      -0.139743
                                                         0.128212      -0.027849
                          1       3    3pz               5.605331      -0.703879
                                                         2.113016      -0.642521
                                                         0.769911      -0.374851
                                                         0.348157      -0.139743
                                                         0.128212      -0.027849

                          1       4    4px               5.605331      -0.480376
                                                         2.113016      -0.552894
                                                         0.769911      -0.316145
                                                         0.348157       0.210505
                                                         0.128212       0.076095
                          1       4    4py               5.605331      -0.480376
                                                         2.113016      -0.552894
                                                         0.769911      -0.316145
                                                         0.348157       0.210505
                                                         0.128212       0.076095
                          1       4    4pz               5.605331      -0.480376
                                                         2.113016      -0.552894
                                                         0.769911      -0.316145
                                                         0.348157       0.210505
                                                         0.128212       0.076095

                          1       5    4dx2              5.605331       0.640026
                                                         2.113016       0.274300
                                                         0.769911       0.446711
                                                         0.348157       0.028674
                                                         0.128212       0.029790
                          1       5    4dxy              5.605331       1.108557
                                                         2.113016       0.475102
                                                         0.769911       0.773726
                                                         0.348157       0.049666
                                                         0.128212       0.051599
                          1       5    4dxz              5.605331       1.108557
                                                         2.113016       0.475102
                                                         0.769911       0.773726
                                                         0.348157       0.049666
                                                         0.128212       0.051599
                          1       5    4dy2              5.605331       0.640026
                                                         2.113016       0.274300
                                                         0.769911       0.446711
                                                         0.348157       0.028674
                                                         0.128212       0.029790
                          1       5    4dyz              5.605331       1.108557
                                                         2.113016       0.475102
                                                         0.769911       0.773726
                                                         0.348157       0.049666
                                                         0.128212       0.051599
                          1       5    4dz2              5.605331       0.640026
                                                         2.113016       0.274300
                                                         0.769911       0.446711
                                                         0.348157       0.028674
                                                         0.128212       0.029790

     GTH Potential information for                                    GTH-PBE-q4

       Description:                       Goedecker-Teter-Hutter pseudopotential
                                           Goedecker et al., PRB 54, 1703 (1996)
                                          Hartwigsen et al., PRB 58, 3641 (1998)
                                                      Krack, TCA 114, 145 (2005)

       Gaussian exponent of the core charge distribution:               4.364419
       Electronic configuration (s p d ...):                               2   2

       Parameters of the local part of the GTH pseudopotential:

                          rloc        C1          C2          C3          C4
                        0.338471   -8.803674    1.339211

       Parameters of the non-local part of the GTH pseudopotential:

                   l      r(l)      h(i,j,l)

                   0    0.302576    9.622487
                   1    0.291507

  2. Atomic kind: Zr                                    Number of atoms:      18

     Orbital Basis Set                                    DZVP-MOLOPT-SR-GTH-q12

       Number of orbital shell sets:                                           1
       Number of orbital shells:                                               8
       Number of primitive Cartesian functions:                                7
       Number of Cartesian basis functions:                                   31
       Number of spherical basis functions:                                   26
       Norm type:                                                              2

       Normalised Cartesian orbitals:

                        Set   Shell   Orbital            Exponent    Coefficient

                          1       1    2s                7.568386      -0.292925
                                                         2.940870       1.053802
                                                         1.478550      -0.194175
                                                         0.699653      -0.477593
                                                         0.314575      -0.092850
                                                         0.129869       0.000474
                                                         0.046851      -0.000485

                          1       2    3s                7.568386      -0.107602
                                                         2.940870       0.453694
                                                         1.478550      -0.133469
                                                         0.699653      -0.242646
                                                         0.314575      -0.112324
                                                         0.129869       0.079936
                                                         0.046851       0.057275

                          1       3    4s                7.568386      -0.039443
                                                         2.940870      -0.239516
                                                         1.478550       0.462939
                                                         0.699653       0.054202
                                                         0.314575       0.378792
                                                         0.129869      -0.467495
                                                         0.046851       0.135277

                          1       4    3px               7.568386      -0.367032
                                                         2.940870       1.199938
                                                         1.478550      -0.729727
                                                         0.699653      -0.527717
                                                         0.314575      -0.102074
                                                         0.129869      -0.002163
                                                         0.046851      -0.000016
                          1       4    3py               7.568386      -0.367032
                                                         2.940870       1.199938
                                                         1.478550      -0.729727
                                                         0.699653      -0.527717
                                                         0.314575      -0.102074
                                                         0.129869      -0.002163
                                                         0.046851      -0.000016
                          1       4    3pz               7.568386      -0.367032
                                                         2.940870       1.199938
                                                         1.478550      -0.729727
                                                         0.699653      -0.527717
                                                         0.314575      -0.102074
                                                         0.129869      -0.002163
                                                         0.046851      -0.000016

                          1       5    4px               7.568386      -0.041149
                                                         2.940870       0.296409
                                                         1.478550      -0.285807
                                                         0.699653      -0.254468
                                                         0.314575       0.008755
                                                         0.129869       0.053085
                                                         0.046851       0.019526
                          1       5    4py               7.568386      -0.041149
                                                         2.940870       0.296409
                                                         1.478550      -0.285807
                                                         0.699653      -0.254468
                                                         0.314575       0.008755
                                                         0.129869       0.053085
                                                         0.046851       0.019526
                          1       5    4pz               7.568386      -0.041149
                                                         2.940870       0.296409
                                                         1.478550      -0.285807
                                                         0.699653      -0.254468
                                                         0.314575       0.008755
                                                         0.129869       0.053085
                                                         0.046851       0.019526

                          1       6    4dx2              7.568386      -0.104612
                                                         2.940870      -0.141339
                                                         1.478550       0.540679
                                                         0.699653       0.284252
                                                         0.314575       0.094561
                                                         0.129869       0.012195
                                                         0.046851       0.000412
                          1       6    4dxy              7.568386      -0.181193
                                                         2.940870      -0.244806
                                                         1.478550       0.936483
                                                         0.699653       0.492339
                                                         0.314575       0.163785
                                                         0.129869       0.021122
                                                         0.046851       0.000713
                          1       6    4dxz              7.568386      -0.181193
                                                         2.940870      -0.244806
                                                         1.478550       0.936483
                                                         0.699653       0.492339
                                                         0.314575       0.163785
                                                         0.129869       0.021122
                                                         0.046851       0.000713
                          1       6    4dy2              7.568386      -0.104612
                                                         2.940870      -0.141339
                                                         1.478550       0.540679
                                                         0.699653       0.284252
                                                         0.314575       0.094561
                                                         0.129869       0.012195
                                                         0.046851       0.000412
                          1       6    4dyz              7.568386      -0.181193
                                                         2.940870      -0.244806
                                                         1.478550       0.936483
                                                         0.699653       0.492339
                                                         0.314575       0.163785
                                                         0.129869       0.021122
                                                         0.046851       0.000713
                          1       6    4dz2              7.568386      -0.104612
                                                         2.940870      -0.141339
                                                         1.478550       0.540679
                                                         0.699653       0.284252
                                                         0.314575       0.094561
                                                         0.129869       0.012195
                                                         0.046851       0.000412

                          1       7    5dx2              7.568386      -0.107600
                                                         2.940870       0.230973
                                                         1.478550      -0.200541
                                                         0.699653      -0.193347
                                                         0.314575       0.007888
                                                         0.129869       0.006706
                                                         0.046851       0.006900
                          1       7    5dxy              7.568386      -0.186369
                                                         2.940870       0.400056
                                                         1.478550      -0.347346
                                                         0.699653      -0.334887
                                                         0.314575       0.013663
                                                         0.129869       0.011615
                                                         0.046851       0.011951
                          1       7    5dxz              7.568386      -0.186369
                                                         2.940870       0.400056
                                                         1.478550      -0.347346
                                                         0.699653      -0.334887
                                                         0.314575       0.013663
                                                         0.129869       0.011615
                                                         0.046851       0.011951
                          1       7    5dy2              7.568386      -0.107600
                                                         2.940870       0.230973
                                                         1.478550      -0.200541
                                                         0.699653      -0.193347
                                                         0.314575       0.007888
                                                         0.129869       0.006706
                                                         0.046851       0.006900
                          1       7    5dyz              7.568386      -0.186369
                                                         2.940870       0.400056
                                                         1.478550      -0.347346
                                                         0.699653      -0.334887
                                                         0.314575       0.013663
                                                         0.129869       0.011615
                                                         0.046851       0.011951
                          1       7    5dz2              7.568386      -0.107600
                                                         2.940870       0.230973
                                                         1.478550      -0.200541
                                                         0.699653      -0.193347
                                                         0.314575       0.007888
                                                         0.129869       0.006706
                                                         0.046851       0.006900

                          1       8    5fx3              7.568386       0.371480
                                                         2.940870      -0.155968
                                                         1.478550      -0.211323
                                                         0.699653      -0.255968
                                                         0.314575      -0.046738
                                                         0.129869      -0.005674
                                                         0.046851       0.000171
                          1       8    5fx2y             7.568386       0.830655
                                                         2.940870      -0.348756
                                                         1.478550      -0.472533
                                                         0.699653      -0.572361
                                                         0.314575      -0.104510
                                                         0.129869      -0.012687
                                                         0.046851       0.000382
                          1       8    5fx2z             7.568386       0.830655
                                                         2.940870      -0.348756
                                                         1.478550      -0.472533
                                                         0.699653      -0.572361
                                                         0.314575      -0.104510
                                                         0.129869      -0.012687
                                                         0.046851       0.000382
                          1       8    5fxy2             7.568386       0.830655
                                                         2.940870      -0.348756
                                                         1.478550      -0.472533
                                                         0.699653      -0.572361
                                                         0.314575      -0.104510
                                                         0.129869      -0.012687
                                                         0.046851       0.000382
                          1       8    5fxyz             7.568386       1.438737
                                                         2.940870      -0.604063
                                                         1.478550      -0.818452
                                                         0.699653      -0.991359
                                                         0.314575      -0.181017
                                                         0.129869      -0.021975
                                                         0.046851       0.000662
                          1       8    5fxz2             7.568386       0.830655
                                                         2.940870      -0.348756
                                                         1.478550      -0.472533
                                                         0.699653      -0.572361
                                                         0.314575      -0.104510
                                                         0.129869      -0.012687
                                                         0.046851       0.000382
                          1       8    5fy3              7.568386       0.371480
                                                         2.940870      -0.155968
                                                         1.478550      -0.211323
                                                         0.699653      -0.255968
                                                         0.314575      -0.046738
                                                         0.129869      -0.005674
                                                         0.046851       0.000171
                          1       8    5fy2z             7.568386       0.830655
                                                         2.940870      -0.348756
                                                         1.478550      -0.472533
                                                         0.699653      -0.572361
                                                         0.314575      -0.104510
                                                         0.129869      -0.012687
                                                         0.046851       0.000382
                          1       8    5fyz2             7.568386       0.830655
                                                         2.940870      -0.348756
                                                         1.478550      -0.472533
                                                         0.699653      -0.572361
                                                         0.314575      -0.104510
                                                         0.129869      -0.012687
                                                         0.046851       0.000382
                          1       8    5fz3              7.568386       0.371480
                                                         2.940870      -0.155968
                                                         1.478550      -0.211323
                                                         0.699653      -0.255968
                                                         0.314575      -0.046738
                                                         0.129869      -0.005674
                                                         0.046851       0.000171

     GTH Potential information for                                   GTH-PBE-q12

       Description:                       Goedecker-Teter-Hutter pseudopotential
                                           Goedecker et al., PRB 54, 1703 (1996)
                                          Hartwigsen et al., PRB 58, 3641 (1998)
                                                      Krack, TCA 114, 145 (2005)

       Gaussian exponent of the core charge distribution:               2.263468
       Electronic configuration (s p d ...):                           4   6   2

       Parameters of the local part of the GTH pseudopotential:

                          rloc        C1          C2          C3          C4
                        0.470000    7.796057   -1.893210

       Parameters of the non-local part of the GTH pseudopotential:

                   l      r(l)      h(i,j,l)

                   0    0.259829   23.380874   -8.571939
                                   -8.571939   11.066326
                   1    0.288969    8.592766   -5.377358
                                   -5.377358    6.362576
                   2    0.581245    0.027811    0.276862
                                    0.276862   -0.313932

  3. Atomic kind: H                                     Number of atoms:     178

     Orbital Basis Set                                     DZVP-MOLOPT-SR-GTH-q1

       Number of orbital shell sets:                                           1
       Number of orbital shells:                                               3
       Number of primitive Cartesian functions:                                5
       Number of Cartesian basis functions:                                    5
       Number of spherical basis functions:                                    5
       Norm type:                                                              2

       Normalised Cartesian orbitals:

                        Set   Shell   Orbital            Exponent    Coefficient

                          1       1    2s               10.068468      -0.133023
                                                         2.680223      -0.177618
                                                         0.791502      -0.258419
                                                         0.239116      -0.107525
                                                         0.082193      -0.014019

                          1       2    3s               10.068468       0.344673
                                                         2.680223       1.819821
                                                         0.791502      -0.999069
                                                         0.239116       0.017430
                                                         0.082193       0.082660

                          1       3    3px              10.068468       0.155326
                                                         2.680223       0.367157
                                                         0.791502       0.311480
                                                         0.239116       0.080105
                                                         0.082193       0.033440
                          1       3    3py              10.068468       0.155326
                                                         2.680223       0.367157
                                                         0.791502       0.311480
                                                         0.239116       0.080105
                                                         0.082193       0.033440
                          1       3    3pz              10.068468       0.155326
                                                         2.680223       0.367157
                                                         0.791502       0.311480
                                                         0.239116       0.080105
                                                         0.082193       0.033440

     GTH Potential information for                                    GTH-PBE-q1

       Description:                       Goedecker-Teter-Hutter pseudopotential
                                           Goedecker et al., PRB 54, 1703 (1996)
                                          Hartwigsen et al., PRB 58, 3641 (1998)
                                                      Krack, TCA 114, 145 (2005)

       Gaussian exponent of the core charge distribution:              12.500000
       Electronic configuration (s p d ...):                                   1

       Parameters of the local part of the GTH pseudopotential:

                          rloc        C1          C2          C3          C4
                        0.200000   -4.178900    0.724463

  4. Atomic kind: O                                     Number of atoms:      96

     Orbital Basis Set                                     DZVP-MOLOPT-SR-GTH-q6

       Number of orbital shell sets:                                           1
       Number of orbital shells:                                               5
       Number of primitive Cartesian functions:                                5
       Number of Cartesian basis functions:                                   14
       Number of spherical basis functions:                                   13
       Norm type:                                                              2

       Normalised Cartesian orbitals:

                        Set   Shell   Orbital            Exponent    Coefficient

                          1       1    2s               10.389228       0.396646
                                                         3.849621       0.208811
                                                         1.388401      -0.301641
                                                         0.496955      -0.274061
                                                         0.162492      -0.033677

                          1       2    3s               10.389228       0.303673
                                                         3.849621       0.240943
                                                         1.388401      -0.313066
                                                         0.496955      -0.043055
                                                         0.162492       0.213991

                          1       3    3px              10.389228      -1.530415
                                                         3.849621      -1.371928
                                                         1.388401      -0.761951
                                                         0.496955      -0.253695
                                                         0.162492      -0.035541
                          1       3    3py              10.389228      -1.530415
                                                         3.849621      -1.371928
                                                         1.388401      -0.761951
                                                         0.496955      -0.253695
                                                         0.162492      -0.035541
                          1       3    3pz              10.389228      -1.530415
                                                         3.849621      -1.371928
                                                         1.388401      -0.761951
                                                         0.496955      -0.253695
                                                         0.162492      -0.035541

                          1       4    4px              10.389228      -0.565392
                                                         3.849621      -0.038231
                                                         1.388401      -0.382373
                                                         0.496955       0.179070
                                                         0.162492       0.122714
                          1       4    4py              10.389228      -0.565392
                                                         3.849621      -0.038231
                                                         1.388401      -0.382373
                                                         0.496955       0.179070
                                                         0.162492       0.122714
                          1       4    4pz              10.389228      -0.565392
                                                         3.849621      -0.038231
                                                         1.388401      -0.382373
                                                         0.496955       0.179070
                                                         0.162492       0.122714

                          1       5    4dx2             10.389228       1.867377
                                                         3.849621       0.670994
                                                         1.388401       1.353441
                                                         0.496955       0.273538
                                                         0.162492       0.006620
                          1       5    4dxy             10.389228       3.234392
                                                         3.849621       1.162195
                                                         1.388401       2.344229
                                                         0.496955       0.473781
                                                         0.162492       0.011466
                          1       5    4dxz             10.389228       3.234392
                                                         3.849621       1.162195
                                                         1.388401       2.344229
                                                         0.496955       0.473781
                                                         0.162492       0.011466
                          1       5    4dy2             10.389228       1.867377
                                                         3.849621       0.670994
                                                         1.388401       1.353441
                                                         0.496955       0.273538
                                                         0.162492       0.006620
                          1       5    4dyz             10.389228       3.234392
                                                         3.849621       1.162195
                                                         1.388401       2.344229
                                                         0.496955       0.473781
                                                         0.162492       0.011466
                          1       5    4dz2             10.389228       1.867377
                                                         3.849621       0.670994
                                                         1.388401       1.353441
                                                         0.496955       0.273538
                                                         0.162492       0.006620

     GTH Potential information for                                    GTH-PBE-q6

       Description:                       Goedecker-Teter-Hutter pseudopotential
                                           Goedecker et al., PRB 54, 1703 (1996)
                                          Hartwigsen et al., PRB 58, 3641 (1998)
                                                      Krack, TCA 114, 145 (2005)

       Gaussian exponent of the core charge distribution:               8.360253
       Electronic configuration (s p d ...):                               2   4

       Parameters of the local part of the GTH pseudopotential:

                          rloc        C1          C2          C3          C4
                        0.244554  -16.667215    2.487311

       Parameters of the non-local part of the GTH pseudopotential:

                   l      r(l)      h(i,j,l)

                   0    0.220956   18.337458
                   1    0.211332

  5. Atomic kind: Ni                                    Number of atoms:       4

     Orbital Basis Set                                    DZVP-MOLOPT-SR-GTH-q18

       Number of orbital shell sets:                                           1
       Number of orbital shells:                                               8
       Number of primitive Cartesian functions:                                6
       Number of Cartesian basis functions:                                   31
       Number of spherical basis functions:                                   26
       Norm type:                                                              2

       Normalised Cartesian orbitals:

                        Set   Shell   Orbital            Exponent    Coefficient

                          1       1    2s               10.077428      -0.684558
                                                         5.847736      -0.844524
                                                         2.494033       1.088856
                                                         0.988355       0.395503
                                                         0.344978       0.010224
                                                         0.099466      -0.003250

                          1       2    3s               10.077428       0.096747
                                                         5.847736       0.162504
                                                         2.494033      -0.297192
                                                         0.988355      -0.319752
                                                         0.344978       0.088318
                                                         0.099466       0.118587

                          1       3    4s               10.077428       0.036437
                                                         5.847736      -0.381480
                                                         2.494033       0.003759
                                                         0.988355      -1.048256
                                                         0.344978       0.855825
                                                         0.099466      -0.176350

                          1       4    3px              10.077428      -3.133913
                                                         5.847736       3.027656
                                                         2.494033       2.353227
                                                         0.988355       0.554184
                                                         0.344978       0.019462
                                                         0.099466      -0.000291
                          1       4    3py              10.077428      -3.133913
                                                         5.847736       3.027656
                                                         2.494033       2.353227
                                                         0.988355       0.554184
                                                         0.344978       0.019462
                                                         0.099466      -0.000291
                          1       4    3pz              10.077428      -3.133913
                                                         5.847736       3.027656
                                                         2.494033       2.353227
                                                         0.988355       0.554184
                                                         0.344978       0.019462
                                                         0.099466      -0.000291

                          1       5    4px              10.077428      -0.112729
                                                         5.847736      -0.114008
                                                         2.494033      -0.347303
                                                         0.988355      -0.110323
                                                         0.344978       0.154096
                                                         0.099466       0.058386
                          1       5    4py              10.077428      -0.112729
                                                         5.847736      -0.114008
                                                         2.494033      -0.347303
                                                         0.988355      -0.110323
                                                         0.344978       0.154096
                                                         0.099466       0.058386
                          1       5    4pz              10.077428      -0.112729
                                                         5.847736      -0.114008
                                                         2.494033      -0.347303
                                                         0.988355      -0.110323
                                                         0.344978       0.154096
                                                         0.099466       0.058386

                          1       6    4dx2             10.077428       8.232726
                                                         5.847736       9.105758
                                                         2.494033       2.849835
                                                         0.988355       0.554319
                                                         0.344978       0.067245
                                                         0.099466       0.001940
                          1       6    4dxy             10.077428      14.259500
                                                         5.847736      15.771636
                                                         2.494033       4.936060
                                                         0.988355       0.960109
                                                         0.344978       0.116472
                                                         0.099466       0.003360
                          1       6    4dxz             10.077428      14.259500
                                                         5.847736      15.771636
                                                         2.494033       4.936060
                                                         0.988355       0.960109
                                                         0.344978       0.116472
                                                         0.099466       0.003360
                          1       6    4dy2             10.077428       8.232726
                                                         5.847736       9.105758
                                                         2.494033       2.849835
                                                         0.988355       0.554319
                                                         0.344978       0.067245
                                                         0.099466       0.001940
                          1       6    4dyz             10.077428      14.259500
                                                         5.847736      15.771636
                                                         2.494033       4.936060
                                                         0.988355       0.960109
                                                         0.344978       0.116472
                                                         0.099466       0.003360
                          1       6    4dz2             10.077428       8.232726
                                                         5.847736       9.105758
                                                         2.494033       2.849835
                                                         0.988355       0.554319
                                                         0.344978       0.067245
                                                         0.099466       0.001940

                          1       7    5dx2             10.077428      -2.715373
                                                         5.847736      -4.020640
                                                         2.494033      -1.397569
                                                         0.988355      -0.076143
                                                         0.344978       0.033435
                                                         0.099466       0.026032
                          1       7    5dxy             10.077428      -4.703164
                                                         5.847736      -6.963952
                                                         2.494033      -2.420661
                                                         0.988355      -0.131883
                                                         0.344978       0.057911
                                                         0.099466       0.045088
                          1       7    5dxz             10.077428      -4.703164
                                                         5.847736      -6.963952
                                                         2.494033      -2.420661
                                                         0.988355      -0.131883
                                                         0.344978       0.057911
                                                         0.099466       0.045088
                          1       7    5dy2             10.077428      -2.715373
                                                         5.847736      -4.020640
                                                         2.494033      -1.397569
                                                         0.988355      -0.076143
                                                         0.344978       0.033435
                                                         0.099466       0.026032
                          1       7    5dyz             10.077428      -4.703164
                                                         5.847736      -6.963952
                                                         2.494033      -2.420661
                                                         0.988355      -0.131883
                                                         0.344978       0.057911
                                                         0.099466       0.045088
                          1       7    5dz2             10.077428      -2.715373
                                                         5.847736      -4.020640
                                                         2.494033      -1.397569
                                                         0.988355      -0.076143
                                                         0.344978       0.033435
                                                         0.099466       0.026032

                          1       8    5fx3             10.077428      -0.467694
                                                         5.847736       0.618100
                                                         2.494033       0.066069
                                                         0.988355       0.262898
                                                         0.344978       0.004720
                                                         0.099466       0.007748
                          1       8    5fx2y            10.077428      -1.045795
                                                         5.847736       1.382114
                                                         2.494033       0.147734
                                                         0.988355       0.587859
                                                         0.344978       0.010555
                                                         0.099466       0.017325
                          1       8    5fx2z            10.077428      -1.045795
                                                         5.847736       1.382114
                                                         2.494033       0.147734
                                                         0.988355       0.587859
                                                         0.344978       0.010555
                                                         0.099466       0.017325
                          1       8    5fxy2            10.077428      -1.045795
                                                         5.847736       1.382114
                                                         2.494033       0.147734
                                                         0.988355       0.587859
                                                         0.344978       0.010555
                                                         0.099466       0.017325
                          1       8    5fxyz            10.077428      -1.811371
                                                         5.847736       2.393892
                                                         2.494033       0.255883
                                                         0.988355       1.018201
                                                         0.344978       0.018282
                                                         0.099466       0.030008
                          1       8    5fxz2            10.077428      -1.045795
                                                         5.847736       1.382114
                                                         2.494033       0.147734
                                                         0.988355       0.587859
                                                         0.344978       0.010555
                                                         0.099466       0.017325
                          1       8    5fy3             10.077428      -0.467694
                                                         5.847736       0.618100
                                                         2.494033       0.066069
                                                         0.988355       0.262898
                                                         0.344978       0.004720
                                                         0.099466       0.007748
                          1       8    5fy2z            10.077428      -1.045795
                                                         5.847736       1.382114
                                                         2.494033       0.147734
                                                         0.988355       0.587859
                                                         0.344978       0.010555
                                                         0.099466       0.017325
                          1       8    5fyz2            10.077428      -1.045795
                                                         5.847736       1.382114
                                                         2.494033       0.147734
                                                         0.988355       0.587859
                                                         0.344978       0.010555
                                                         0.099466       0.017325
                          1       8    5fz3             10.077428      -0.467694
                                                         5.847736       0.618100
                                                         2.494033       0.066069
                                                         0.988355       0.262898
                                                         0.344978       0.004720
                                                         0.099466       0.007748

     GTH Potential information for                                   GTH-PBE-q18

       Description:                       Goedecker-Teter-Hutter pseudopotential
                                           Goedecker et al., PRB 54, 1703 (1996)
                                          Hartwigsen et al., PRB 58, 3641 (1998)
                                                      Krack, TCA 114, 145 (2005)

       Gaussian exponent of the core charge distribution:               4.081633
       Electronic configuration (s p d ...):                           4   6   8

       Parameters of the local part of the GTH pseudopotential:

                          rloc        C1          C2          C3          C4
                        0.350000    2.102166    0.648484

       Parameters of the non-local part of the GTH pseudopotential:

                   l      r(l)      h(i,j,l)

                   0    0.261295    0.622658    9.970227
                                    9.970227  -12.871507
                   1    0.224253  -11.142708   12.429566
                                   12.429566  -14.706861
                   2    0.215348  -12.628146


 MOLECULE KIND INFORMATION


 All atoms are their own molecule, skipping detailed information


 TOTAL NUMBERS AND MAXIMUM NUMBERS

  Total number of            - Atomic kinds:                                   5
                             - Atoms:                                        560
                             - Shell sets:                                   560
                             - Shells:                                      2510
                             - Primitive Cartesian functions:               2840
                             - Cartesian basis functions:                   6612
                             - Spherical basis functions:                   6142

  Maximum angular momentum of- Orbital basis functions:                        3
                             - Local part of the GTH pseudopotential:          2
                             - Non-local part of the GTH pseudopotential:      4


 MODULE QUICKSTEP:  ATOMIC COORDINATES IN angstrom

  Atom  Kind  Element       X           Y           Z          Z(eff)       Mass

       1     1 C    6   11.858528   14.053386   21.731367      4.00      12.0107
       2     1 C    6   12.455871   12.890323   21.013171      4.00      12.0107
       3     1 C    6   11.704267   12.171740   20.071167      4.00      12.0107
       4     1 C    6   12.280520   11.109443   19.378852      4.00      12.0107
       5     1 C    6   13.620961   10.739269   19.606816      4.00      12.0107
       6     1 C    6   14.354036   11.442503   20.580620      4.00      12.0107
       7     1 C    6   13.781259   12.507540   21.272114      4.00      12.0107
       8     1 C    6   14.260453    9.648618   18.833367      4.00      12.0107
       9     1 C    6   14.255556    9.656435   17.411658      4.00      12.0107
      10     1 C    6   13.742386   10.758528   16.657712      4.00      12.0107
      11     1 C    6   49.126603   21.233400   21.869518      4.00      12.0107
      12     1 C    6   48.549742   22.401245   21.142504      4.00      12.0107
      13     1 C    6   49.299722   23.068464   20.161384      4.00      12.0107
      14     1 C    6   48.732773   24.107581   19.428195      4.00      12.0107
      15     1 C    6   47.402228   24.509220   19.656817      4.00      12.0107
      16     1 C    6   46.671349   23.860466   20.670470      4.00      12.0107
      17     1 C    6   47.233786   22.815547   21.399814      4.00      12.0107
      18     1 C    6   46.772027   25.586912   18.859537      4.00      12.0107
      19     1 C    6   46.761052   25.557247   17.437786      4.00      12.0107
      20     1 C    6   47.260946   24.442139   16.694290      4.00      12.0107
      21     1 C    6   14.859381    8.570052   16.698353      4.00      12.0107
      22     1 C    6   14.891299    8.596671   19.509980      4.00      12.0107
      23     1 C    6   49.112911   21.203482   10.145275      4.00      12.0107
      24     1 C    6   48.527496   22.364765   10.872406      4.00      12.0107
      25     1 C    6   49.266625   23.025273   11.865542      4.00      12.0107
      26     1 C    6   48.690297   24.059823   12.596991      4.00      12.0107
      27     1 C    6   47.359942   24.456742   12.358613      4.00      12.0107
      28     1 C    6   46.639669   23.812085   11.334813      4.00      12.0107
      29     1 C    6   47.213219   22.776183   10.603018      4.00      12.0107
      30     1 C    6   46.721476   25.531677   13.149640      4.00      12.0107
      31     1 C    6   46.733282   25.528045   14.571342      4.00      12.0107
      32     1 C    6   47.248657   24.428809   15.327737      4.00      12.0107
      33     1 C    6   40.617562   17.080633   15.316671      4.00      12.0107
      34     1 C    6   40.636431   17.130666   12.506121      4.00      12.0107
      35     1 C    6   11.882825   14.086372   10.285484      4.00      12.0107
      36     1 C    6   12.471825   12.910373   10.989571      4.00      12.0107
      37     1 C    6   11.714242   12.177566   11.915956      4.00      12.0107
      38     1 C    6   12.280559   11.094989   12.584385      4.00      12.0107
      39     1 C    6   13.619169   10.720660   12.352284      4.00      12.0107
      40     1 C    6   14.357061   11.435569   11.390914      4.00      12.0107
      41     1 C    6   13.791896   12.516853   10.718192      4.00      12.0107
      42     1 C    6   14.252588    9.623854   13.122735      4.00      12.0107
      43     1 C    6   14.251437    9.643930   14.544578      4.00      12.0107
      44     1 C    6   13.741681   10.752923   15.291663      4.00      12.0107
      45     1 C    6   22.506724    3.243051   21.738236      4.00      12.0107
      46     1 C    6   23.210471    4.346439   21.026514      4.00      12.0107
      47     1 C    6   24.209944    4.064122   20.083782      4.00      12.0107
      48     1 C    6   24.831356    5.101592   19.393968      4.00      12.0107
      49     1 C    6   24.467762    6.442746   19.626507      4.00      12.0107
      50     1 C    6   23.493027    6.716712   20.603124      4.00      12.0107
      51     1 C    6   22.867947    5.681215   21.292316      4.00      12.0107
      52     1 C    6   25.076395    7.547679   18.852343      4.00      12.0107
      53     1 C    6   25.070287    7.536212   17.431139      4.00      12.0107
      54     1 C    6   24.379843    6.533442   16.679466      4.00      12.0107
      55     1 C    6   38.300674   31.927149   21.837729      4.00      12.0107
      56     1 C    6   37.565590   30.839156   21.127711      4.00      12.0107
      57     1 C    6   36.601055   31.147928   20.155777      4.00      12.0107
      58     1 C    6   35.973940   30.132183   19.438819      4.00      12.0107
      59     1 C    6   36.295275   28.780058   19.670084      4.00      12.0107
      60     1 C    6   37.231574   28.478667   20.677596      4.00      12.0107
      61     1 C    6   37.862532   29.493387   21.394074      4.00      12.0107
      62     1 C    6   35.681392   27.692407   18.872452      4.00      12.0107
      63     1 C    6   35.707600   27.708755   17.450186      4.00      12.0107
      64     1 C    6   36.413271   28.710271   16.711697      4.00      12.0107
      65     1 C    6   25.701968    8.605275   16.717452      4.00      12.0107
      66     1 C    6   25.658460    8.627015   19.528300      4.00      12.0107
      67     1 C    6   38.325637   31.960650   10.156110      4.00      12.0107
      68     1 C    6   37.596691   30.888747   10.895792      4.00      12.0107
      69     1 C    6   36.661681   31.201021   11.895024      4.00      12.0107
      70     1 C    6   36.041567   30.185896   12.621538      4.00      12.0107
      71     1 C    6   36.341141   28.830944   12.374231      4.00      12.0107
      72     1 C    6   37.254204   28.528608   11.344970      4.00      12.0107
      73     1 C    6   37.876135   29.540451   10.619164      4.00      12.0107
      74     1 C    6   35.724018   27.734898   13.158612      4.00      12.0107
      75     1 C    6   35.729137   27.730490   14.581431      4.00      12.0107
      76     1 C    6   36.422876   28.721179   15.345002      4.00      12.0107
      77     1 C    6   46.135250   26.620667   15.281480      4.00      12.0107
      78     1 C    6   46.087546   26.580050   12.473575      4.00      12.0107
      79     1 C    6   22.465774    3.254428   10.252413      4.00      12.0107
      80     1 C    6   23.172943    4.360448   10.964713      4.00      12.0107
      81     1 C    6   24.185137    4.069329   11.893050      4.00      12.0107
      82     1 C    6   24.824317    5.096572   12.582443      4.00      12.0107
      83     1 C    6   24.470349    6.443084   12.366031      4.00      12.0107
      84     1 C    6   23.482714    6.727667   11.404485      4.00      12.0107
      85     1 C    6   22.839398    5.700724   10.714773      4.00      12.0107
      86     1 C    6   25.103464    7.537223   13.142846      4.00      12.0107
      87     1 C    6   25.084885    7.530083   14.564842      4.00      12.0107
      88     1 C    6   24.384253    6.532286   15.313291      4.00      12.0107
      89     1 C    6   26.563055   17.829757   21.775886      4.00      12.0107
      90     1 C    6   25.262615   17.893798   21.050397      4.00      12.0107
      91     1 C    6   25.010353   18.908955   20.114430      4.00      12.0107
      92     1 C    6   23.802432   18.940930   19.421889      4.00      12.0107
      93     1 C    6   22.814604   17.961108   19.644738      4.00      12.0107
      94     1 C    6   23.062019   16.969380   20.612379      4.00      12.0107
      95     1 C    6   24.271013   16.932319   21.303382      4.00      12.0107
      96     1 C    6   21.548704   17.956727   18.873013      4.00      12.0107
      97     1 C    6   21.557202   17.952214   17.451033      4.00      12.0107
      98     1 C    6   22.767442   17.843825   16.695734      4.00      12.0107
      99     1 C    6   34.421508   17.218097   21.907148      4.00      12.0107
     100     1 C    6   35.714225   17.149958   21.167068      4.00      12.0107
     101     1 C    6   35.901046   16.186076   20.163666      4.00      12.0107
     102     1 C    6   37.083274   16.156053   19.428819      4.00      12.0107
     103     1 C    6   38.109206   17.090466   19.672682      4.00      12.0107
     104     1 C    6   37.923150   18.034540   20.701416      4.00      12.0107
     105     1 C    6   36.740259   18.068595   21.436397      4.00      12.0107
     106     1 C    6   39.363018   17.089685   18.883367      4.00      12.0107
     107     1 C    6   39.358790   17.096390   17.460498      4.00      12.0107
     108     1 C    6   38.151866   17.209843   16.700796      4.00      12.0107
     109     1 C    6   20.313240   17.969782   16.738917      4.00      12.0107
     110     1 C    6   20.322948   17.947140   19.551456      4.00      12.0107
     111     1 C    6   34.448666   17.187462   10.177221      4.00      12.0107
     112     1 C    6   35.752236   17.113890   10.897637      4.00      12.0107
     113     1 C    6   35.987782   16.111707   11.851849      4.00      12.0107
     114     1 C    6   37.173176   16.100165   12.582113      4.00      12.0107
     115     1 C    6   38.156840   17.086516   12.374499      4.00      12.0107
     116     1 C    6   37.930393   18.062349   11.385492      4.00      12.0107
     117     1 C    6   36.741181   18.081670   10.661076      4.00      12.0107
[...]
   553  O            -0.03 -0.00 -0.01    -0.04 -0.00 -0.02     0.03  0.00  0.01
   554  O             0.05  0.00 -0.02    -0.03 -0.00  0.01     0.00  0.00 -0.00
   555  O             0.00  0.00  0.00     0.00  0.00  0.00    -0.00 -0.00 -0.00
   556  O            -0.01 -0.00 -0.00    -0.03 -0.00 -0.01    -0.05 -0.01 -0.02
   557  H            -0.82 -0.02  0.25     0.47  0.02 -0.16    -0.07 -0.00  0.03
   558  H             0.44  0.05  0.16     0.70  0.05  0.26    -0.41 -0.03 -0.15
   559  H            -0.03 -0.04 -0.00    -0.07 -0.08 -0.02     0.06  0.08  0.01
   560  H             0.16  0.02  0.05     0.40  0.04  0.13     0.84  0.06  0.28



 -------------------------------------------------------------------------------
 -                                                                             -
 -                                DBCSR STATISTICS                             -
 -                                                                             -
 -------------------------------------------------------------------------------
 COUNTER                                    TOTAL       BLAS       SMM       ACC
 flops    26 x    23 x    23             44177848       0.0%    100.0%      0.0%
 flops    26 x    27 x    27             60880248       0.0%    100.0%      0.0%
 flops     5 x    23 x    23             68738260       0.0%    100.0%      0.0%
 flops     5 x    27 x    27             94726260       0.0%    100.0%      0.0%
 flops    13 x    23 x    23            361455120       0.0%    100.0%      0.0%
 flops    13 x    27 x    27            498111120       0.0%    100.0%      0.0%
 flops    26 x    32 x    32           5473042432       0.0%    100.0%      0.0%
 flops     5 x    32 x    32           8515747840       0.0%    100.0%      0.0%
 flops    26 x    23 x    26          23215527296       0.0%    100.0%      0.0%
 flops    26 x    27 x    26          26634778560       0.0%    100.0%      0.0%
 flops    26 x    23 x     5          35523759440       0.0%    100.0%      0.0%
 flops     5 x    23 x    26          35523759440       0.0%    100.0%      0.0%
 flops    26 x    27 x     5          40755803400       0.0%    100.0%      0.0%
 flops     5 x    27 x    26          40755803400       0.0%    100.0%      0.0%
 flops     5 x    23 x     5          42417423400       0.0%    100.0%      0.0%
 flops    13 x    32 x    32          44779438080       0.0%    100.0%      0.0%
 flops     5 x    27 x     5          48664786500       0.0%    100.0%      0.0%
 flops    26 x    26 x   279          81008058456       0.0%    100.0%      0.0%
 flops    26 x    26 x   283          82169464312       0.0%    100.0%      0.0%
 flops    26 x     5 x   279         112361268240       0.0%    100.0%      0.0%
 flops    26 x     5 x   283         113972182480       0.0%    100.0%      0.0%
 flops     5 x    26 x   279         114078580200       0.0%    100.0%      0.0%
 flops     5 x    26 x   283         115714115400       0.0%    100.0%      0.0%
 flops     5 x     5 x   279         137290599000       0.0%    100.0%      0.0%
 flops     5 x     5 x   283         139258923000       0.0%    100.0%      0.0%
 flops    26 x    23 x    13         176568094456       0.0%    100.0%      0.0%
 flops    13 x    23 x    26         176568094456       0.0%    100.0%      0.0%
 flops     5 x    23 x    13         190906270490       0.0%    100.0%      0.0%
 flops    13 x    23 x     5         190906270490       0.0%    100.0%      0.0%
 flops    26 x    27 x    13         202573563660       0.0%    100.0%      0.0%
 flops    13 x    27 x    26         202573563660       0.0%    100.0%      0.0%
 flops     5 x    27 x    13         219023512110       0.0%    100.0%      0.0%
 flops    13 x    27 x     5         219023512110       0.0%    100.0%      0.0%
 flops   283 x   283 x   283         219535001282       0.0%    100.0%      0.0%
 flops   279 x   279 x   279         236201041764       0.0%    100.0%      0.0%
 flops    26 x    26 x   256         445979848704       0.0%    100.0%      0.0%
 flops    26 x    13 x   279         562272468732       0.0%    100.0%      0.0%
 flops    13 x    26 x   279         563229256824       0.0%    100.0%      0.0%
 flops    26 x    13 x   283         570333722764       0.0%    100.0%      0.0%
 flops    13 x    26 x   283         571304228248       0.0%    100.0%      0.0%
 flops   283 x   283 x   256         595769897472       0.0%    100.0%      0.0%
 flops   256 x   283 x   283         595769897472       0.0%    100.0%      0.0%
 flops   283 x   256 x   283         595769897472       0.0%    100.0%      0.0%
 flops    13 x     5 x   279         607926801690       0.0%    100.0%      0.0%
 flops     5 x    13 x   279         608971087530       0.0%    100.0%      0.0%
 flops    13 x     5 x   283         616642598130       0.0%    100.0%      0.0%
 flops     5 x    13 x   283         617701855810       0.0%    100.0%      0.0%
 flops    26 x     5 x   256         618591068160       0.0%    100.0%      0.0%
 flops     5 x    26 x   256         628045516800       0.0%    100.0%      0.0%
 flops   279 x   279 x   256         650187813888       0.0%    100.0%      0.0%
 flops   256 x   279 x   279         650187813888       0.0%    100.0%      0.0%
 flops   279 x   256 x   279         650187813888       0.0%    100.0%      0.0%
 flops     5 x     5 x   256         755836416000       0.0%    100.0%      0.0%
 flops    13 x    23 x    13         819898421212       0.0%    100.0%      0.0%
 flops    13 x    27 x    13         940655477736       0.0%    100.0%      0.0%
 flops   256 x   256 x   283        1616788979712       0.0%    100.0%      0.0%
 flops   256 x   283 x   256        1616788979712       0.0%    100.0%      0.0%
 flops   283 x   256 x   256        1616788979712       0.0%    100.0%      0.0%
 flops   256 x   256 x   279        1789764304896       0.0%    100.0%      0.0%
 flops   256 x   279 x   256        1789764304896       0.0%    100.0%      0.0%
 flops   279 x   256 x   256        1789764304896       0.0%    100.0%      0.0%
 flops   279 x   279 x  1533        1930763493540       0.0%    100.0%      0.0%
 flops   279 x   279 x  1538        1937060830440       0.0%    100.0%      0.0%
 flops   283 x   283 x  1533        1986522750660       0.0%    100.0%      0.0%
 flops   283 x   283 x  1538        1993001950760       0.0%    100.0%      0.0%
 flops    26 x    32 x    26        2043744288768       0.0%    100.0%      0.0%
 flops  1533 x   279 x   279        2633380023204       0.0%    100.0%      0.0%
 flops    13 x    13 x   279        2641851575298       0.0%    100.0%      0.0%
 flops  1538 x   279 x   279        2641968999144       0.0%    100.0%      0.0%
 flops    13 x    13 x   283        2679727583546       0.0%    100.0%      0.0%
 flops  1533 x   283 x   283        2709430411716       0.0%    100.0%      0.0%
 flops  1538 x   283 x   283        2718267431976       0.0%    100.0%      0.0%
 flops    26 x    13 x   256        3095521548288       0.0%    100.0%      0.0%
 flops    13 x    26 x   256        3100789026816       0.0%    100.0%      0.0%
 flops    26 x    32 x     5        3127281131520       0.0%    100.0%      0.0%
 flops     5 x    32 x    26        3127281131520       0.0%    100.0%      0.0%
 flops    13 x     5 x   256        3346865832960       0.0%    100.0%      0.0%
 flops     5 x    13 x   256        3352615019520       0.0%    100.0%      0.0%
 flops     5 x    32 x     5        3734154547200       0.0%    100.0%      0.0%
 flops   256 x   279 x  1533        5314789831680       0.0%    100.0%      0.0%
 flops   279 x   256 x  1533        5314789831680       0.0%    100.0%      0.0%
 flops   256 x   279 x  1538        5332124436480       0.0%    100.0%      0.0%
 flops   279 x   256 x  1538        5332124436480       0.0%    100.0%      0.0%
 flops   256 x   283 x  1533        5390987535360       0.0%    100.0%      0.0%
 flops   283 x   256 x  1533        5390987535360       0.0%    100.0%      0.0%
 flops   256 x   283 x  1538        5408570664960       0.0%    100.0%      0.0%
 flops   283 x   256 x  1538        5408570664960       0.0%    100.0%      0.0%
 flops  1533 x   256 x   279        7248874042368       0.0%    100.0%      0.0%
 flops  1533 x   279 x   256        7248874042368       0.0%    100.0%      0.0%
 flops  1538 x   279 x   256        7272516814848       0.0%    100.0%      0.0%
 flops  1538 x   256 x   279        7272516814848       0.0%    100.0%      0.0%
 flops  1533 x   256 x   283        7352800551936       0.0%    100.0%      0.0%
 flops  1533 x   283 x   256        7352800551936       0.0%    100.0%      0.0%
 flops  1538 x   283 x   256        7376782288896       0.0%    100.0%      0.0%
 flops  1538 x   256 x   283        7376782288896       0.0%    100.0%      0.0%
 flops  1533 x   279 x  1533        9252883215072       0.0%    100.0%      0.0%
 flops  1538 x   279 x  1533        9283062220992       0.0%    100.0%      0.0%
 flops  1533 x   279 x  1538        9283062220992       0.0%    100.0%      0.0%
 flops  1538 x   279 x  1538        9313339658112       0.0%    100.0%      0.0%
 flops   256 x   256 x   256        9314274115584       0.0%    100.0%      0.0%
 flops  1533 x   283 x  1533        9385541038944       0.0%    100.0%      0.0%
 flops  1538 x   283 x  1533        9416152718784       0.0%    100.0%      0.0%
 flops  1533 x   283 x  1538        9416152718784       0.0%    100.0%      0.0%
 flops  1538 x   283 x  1538        9446864241024       0.0%    100.0%      0.0%
 flops    13 x    13 x   256       14544387167232       0.0%    100.0%      0.0%
 flops    13 x    32 x    26       15543908610048       0.0%    100.0%      0.0%
 flops    26 x    32 x    13       15543908610048       0.0%    100.0%      0.0%
 flops     5 x    32 x    13       16806148669440       0.0%    100.0%      0.0%
 flops    13 x    32 x     5       16806148669440       0.0%    100.0%      0.0%
 flops   256 x   256 x  1533       29259918213120       0.0%    100.0%      0.0%
 flops   256 x   256 x  1538       29355351736320       0.0%    100.0%      0.0%
 flops  1533 x   256 x   256       39907779674112       0.0%    100.0%      0.0%
 flops  1538 x   256 x   256       40037942034432       0.0%    100.0%      0.0%
 flops  1533 x   256 x  1533       50940604366848       0.0%    100.0%      0.0%
 flops  1533 x   256 x  1538       51106751152128       0.0%    100.0%      0.0%
 flops  1538 x   256 x  1533       51106751152128       0.0%    100.0%      0.0%
 flops  1538 x   256 x  1538       51273439838208       0.0%    100.0%      0.0%
 flops    13 x    32 x    13       72178533593088       0.0%    100.0%      0.0%
 flops inhomo. stacks                           0       0.0%      0.0%      0.0%
 flops total                       754.886067E+12       0.0%    100.0%      0.0%
 flops max/rank                     51.026073E+12       0.0%    100.0%      0.0%
 matmuls inhomo. stacks                         0       0.0%      0.0%      0.0%
 matmuls total                        20577493098       0.0%    100.0%      0.0%
 number of processed stacks              27822448       0.0%    100.0%      0.0%
 average stack size                                     0.0     739.6       0.0
 marketing flops                     1.336671E+15
 -------------------------------------------------------------------------------
 # multiplications                          42970
 max memory usage/rank               2.194248E+09
 # max total images/rank                        1
 # max 3D layers                                1
 # MPI messages exchanged                 4125120
 MPI messages size (bytes):
  total size                        12.582533E+12
  min size                           0.000000E+00
  max size                          18.923552E+06
  average size                       3.050222E+06
 MPI breakdown and total messages size (bytes):
             size <=      128               19272                        0
       128 < size <=     8192                   0                        0
      8192 < size <=    32768                   0                        0
     32768 < size <=   131072                1752                117023088
    131072 < size <=  4194304             3629328            7640383266672
   4194304 < size <= 16777216              305424            1745052061536
  16777216 < size                          169344            3194180414208
 -------------------------------------------------------------------------------
 -                                                                             -
 -                      DBCSR MESSAGE PASSING PERFORMANCE                      -
 -                                                                             -
 -------------------------------------------------------------------------------
 ROUTINE             CALLS      AVE VOLUME [Bytes]
 MP_Group             3640
 MP_Bcast              119                     12.
 MP_Allreduce       216085                     43.
 MP_Alltoall        171139                 533624.
 MP_Wait           2062560
 MP_ISend           686936                1191426.
 MP_IRecv           686936                1180354.
 MP_Memory         1565242
 -------------------------------------------------------------------------------

 MEMORY| Estimated peak process memory [MiB]                                2093

 -------------------------------------------------------------------------------
 ----                             MULTIGRID INFO                            ----
 -------------------------------------------------------------------------------
 count for grid        1:        1657680          cutoff [a.u.]          180.00
 count for grid        2:         393520          cutoff [a.u.]           60.00
 count for grid        3:         224320          cutoff [a.u.]           20.00
 count for grid        4:          22240          cutoff [a.u.]            6.67
 count for grid        5:            640          cutoff [a.u.]            2.22
 total gridlevel count  :        2298400

 -------------------------------------------------------------------------------
 -                                                                             -
 -                         MESSAGE PASSING PERFORMANCE                         -
 -                                                                             -
 -------------------------------------------------------------------------------

 ROUTINE             CALLS      AVE VOLUME [Bytes]
 MP_Group                6
 MP_Bcast             1235                6812318.
 MP_Allreduce           91                  18149.
 MP_Sync                 5
 -------------------------------------------------------------------------------


 -------------------------------------------------------------------------------
 -                                                                             -
 -                           R E F E R E N C E S                               -
 -                                                                             -
 -------------------------------------------------------------------------------
 
 CP2K version 7.1, the CP2K developers group (2019).
 CP2K is freely available from https://www.cp2k.org/ .

 Schuett, Ole; Messmer, Peter; Hutter, Juerg; VandeVondele, Joost. 
 Electronic Structure Calculations on Graphics Processing Units, John
 Wiley & Sons, Ltd, 173-190 (2016). 
 GPU-Accelerated Sparse Matrix-Matrix Multiplication for
 Linear Scaling Density Functional Theory.
 https://dx.doi.org/10.1002/9781118670712.ch8

 Borstnik, U; VandeVondele, J; Weber, V; Hutter, J. 
 PARALLEL COMPUTING, 40 (5-6), 47-58 (2014). 
 Sparse matrix multiplication: The distributed block-compressed sparse
 row library.
 https://dx.doi.org/10.1016/j.parco.2014.03.012

 Hutter, J; Iannuzzi, M; Schiffmann, F; VandeVondele, J. 
 WIREs Comput Mol Sci., 4 (1), 15-25 (2014). 
 CP2K: atomistic simulations of condensed matter systems.
 https://dx.doi.org/10.1002/wcms.1159

 Grimme, S; Ehrlich, S; Goerigk, L. 
 JOURNAL OF COMPUTATIONAL CHEMISTRY, 32, 1456 (2011). 
 Effect of the damping function in dispersion corrected density functional theory.
 https://dx.doi.org/10.1002/jcc.21759

 Grimme, S; Antony, J; Ehrlich, S; Krieg, H. 
 JOURNAL OF CHEMICAL PHYSICS, 132 (15), 154104 (2010). 
 A consistent and accurate ab initio parametrization of density
 functional dispersion correction (DFT-D) for the 94 elements H-Pu.
 https://dx.doi.org/10.1063/1.3382344

 VandeVondele, J; Hutter, J. 
 JOURNAL OF CHEMICAL PHYSICS, 127 (11), 114105 (2007). 
 Gaussian basis sets for accurate calculations on molecular systems in
 gas and condensed phases.
 https://dx.doi.org/10.1063/1.2770708

 Krack, M. 
 THEORETICAL CHEMISTRY ACCOUNTS, 114 (1-3), 145-152 (2005). 
 Pseudopotentials for H to Kr optimized for gradient-corrected
 exchange-correlation functionals.
 https://dx.doi.org/10.1007/s00214-005-0655-y

 VandeVondele, J; Krack, M; Mohamed, F; Parrinello, M; Chassaing, T;
 Hutter, J. COMPUTER PHYSICS COMMUNICATIONS, 167 (2), 103-128 (2005). 
 QUICKSTEP: Fast and accurate density functional calculations using a
 mixed Gaussian and plane waves approach.
 https://dx.doi.org/10.1016/j.cpc.2004.12.014

 Frigo, M; Johnson, SG. 
 PROCEEDINGS OF THE IEEE, 93 (2), 216-231 (2005). 
 The design and implementation of FFTW3.
 https://dx.doi.org/10.1109/JPROC.2004.840301

 Kolafa, J. 
 JOURNAL OF COMPUTATIONAL CHEMISTRY, 25 (3), 335-342 (2004). 
 Time-reversible always stable predictor-corrector method for molecular dynamics of polarizable molecules.
 https://dx.doi.org/10.1002/jcc.10385

 VandeVondele, J; Hutter, J. 
 JOURNAL OF CHEMICAL PHYSICS, 118 (10), 4365-4369 (2003). 
 An efficient orbital transformation method for electronic structure
 calculations.
 https://dx.doi.org/10.1063/1.1543154

 Hartwigsen, C; Goedecker, S; Hutter, J. 
 PHYSICAL REVIEW B, 58 (7), 3641-3662 (1998). 
 Relativistic separable dual-space Gaussian pseudopotentials from H to Rn.
 https://dx.doi.org/10.1103/PhysRevB.58.3641

 Lippert, G; Hutter, J; Parrinello, M. 
 MOLECULAR PHYSICS, 92 (3), 477-487 (1997). 
 A hybrid Gaussian and plane wave density functional scheme.
 https://dx.doi.org/10.1080/002689797170220

 Perdew, JP; Burke, K; Ernzerhof, M. 
 PHYSICAL REVIEW LETTERS, 77 (18), 3865-3868 (1996). 
 Generalized gradient approximation made simple.
 https://dx.doi.org/10.1103/PhysRevLett.77.3865

 Goedecker, S; Teter, M; Hutter, J. 
 PHYSICAL REVIEW B, 54 (3), 1703-1710 (1996). 
 Separable dual-space Gaussian pseudopotentials.
 https://dx.doi.org/10.1103/PhysRevB.54.1703


 -------------------------------------------------------------------------------
 -                                                                             -
 -                                T I M I N G                                  -
 -                                                                             -
 -------------------------------------------------------------------------------
 SUBROUTINE                       CALLS  ASD         SELF TIME        TOTAL TIME
                                MAXIMUM       AVERAGE  MAXIMUM  AVERAGE  MAXIMUM
 CP2K                                 1  1.0     0.01     0.01 48393.85 48393.92
 vb_anal                              1  2.0 48390.20 48390.29 48392.02 48392.09
 -------------------------------------------------------------------------------

 The number of warnings for this run is : 0
 
 -------------------------------------------------------------------------------
  **** **** ******  **  PROGRAM ENDED AT                 2021-11-20 04:11:44.237
 ***** ** ***  *** **   PROGRAM RAN ON             node0023.palmetto.clemson.edu
 **    ****   ******    PROGRAM RAN BY                                   svicchi
 ***** **    ** ** **   PROGRAM PROCESS ID                               1377946
  **** **  *******  **  PROGRAM STOPPED IN  /scratch2/svicchi/CP2K-4048800.pbs02
