     564
 i =      341, E =     -4680.1645155477
  C        11.8585744296       14.0534751689        21.731392570038
  C        12.4559885300       12.8904113163        21.013108121738
  C        11.7043108424       12.1717244516        20.071264168438
  C        12.2805869551       11.1094903264        19.378859480238
  C        13.6210593561       10.7394036964        19.606734259538
  C        14.3541854338       11.4426958638        20.580444343538
  C        13.7813742978       12.5076757229        21.272023437338
  C        14.2604958853        9.6486810713        18.833327327538
  C        14.2556896210        9.6565092827        17.411612610838
  C        13.7425286414       10.7586120433        16.657668533138
  C        49.1265490902       21.2333670298        21.869590306138
  C        48.5496758843       22.4011936491        21.142479694238
  C        49.2997483631       23.0685909219        20.161559546938
  C        48.7327753032       24.1076572487        19.428307322738
  C        47.4021710235       24.5091526535        19.656819042938
  C        46.6711518903       23.8601648710        20.670211837538
  C        47.2336426048       22.8153184029        21.399620567038
  C        46.7719640395       25.5868571639        18.859534608738
  C        46.7610424823       25.5572783540        17.437770371438
  C        47.2609988257       24.4421924465        16.694281975538
  C        14.8594781161        8.5700816238        16.698340053938
  C        14.8912726705        8.5967127335        19.509963846838
  C        49.1128859622       21.2034468641       10.1453397422
  C        48.5274516432       22.3647627223       10.8724661287
  C        49.2666904444       23.0255473632       11.8653337070
  C        48.6903312317       24.0600927191       12.5967684372
  C        47.3598485624       24.4566968765       12.3586336260
  C        46.6394027925       23.8116852543       11.3352057825
  C        47.2129843213       22.7757823003       10.6034375130
  C        46.7214122568       25.5316773164       13.1496425408
  C        46.7332331105       25.5280769019       14.5713427291
  C        47.2487116329       24.4288874806       15.3277294012
  C        40.6167875114       17.0830631671       15.3078878603
  C        40.6273521890       17.0969975904       12.4977841050
  C        11.8826577011       14.0863954387       10.2854084892
  C        12.4716753653       12.9102780021       10.9894688988
  C        11.7141180693       12.1774851911       11.9158645763
  C        12.2804464467       11.0948973282       12.5843028873
  C        13.6190698807       10.7206235164       12.3522278583
  C        14.3570126348       11.4356783611       11.3910129044
  C        13.7918367324       12.5169742022       10.7183069988
  C        14.2525711197        9.6238568900       13.1227041065
  C        14.2514765576        9.6439304890       14.5445527087
  C        13.7418179298       10.7529826561       15.2916183017
  C        22.5084415668        3.2436234586        21.740034659438
  C        23.2164164958        4.3481632318        21.032920865438
  C        24.2133289909        4.0667277286        20.087206250738
  C        24.8369603530        5.1050396841        19.400444813638
  C        24.4786881671        6.4466851382        19.638964189638
  C        23.5079171126        6.7197570083        20.619820661238
  C        22.8802069215        5.6832467172        21.305545647838
  C        25.0872428848        7.5516588649        18.863906500438
  C        25.0738915858        7.5411346417        17.442386939738
  C        24.3762392699        6.5415220725        16.692756923638
  C        38.2977259439       31.9275812374        21.841495473738
  C        37.5552478670       30.8395434635        21.140183165438
  C        36.5885972582       31.1479983395        20.170334754938
  C        35.9561324594       30.1314009320        19.459715722638
  C        36.2746090374       28.7793030966        19.694876628838
  C        37.2108265892       28.4782812079        20.702383761338
  C        37.8471652086       29.4939300261        21.412719982738
  C        35.6613361639       27.6925620125        18.895825872038
  C        35.6976974199       27.7089849785        17.473857285138
  C        36.4107136490       28.7092598976        16.740335360538
  C        25.7067287402        8.6077252860        16.725916834038
  C        25.6773878234        8.6284922328        19.537465300038
  C        38.3295010242       31.9601082863       10.1605368546
  C        37.6108559500       30.8878939517       10.9097408659
  C        36.6771028927       31.1992523188       11.9104882120
  C        36.0640681457       30.1838831341       12.6428498576
  C        36.3691017708       28.8292846966       12.3997702075
  C        37.2840068199       28.5278807578       11.3718271798
  C        37.8988377765       29.5398520807       10.6403309143
  C        35.7506219622       27.7324716042       13.1820464538
  C        35.7431777445       27.7294583366       14.6049356440
  C        36.4310522901       28.7200712425       15.3738754978
  C        46.1352397365       26.6207176584       15.2814781205
  C        46.0873358009       26.5799609706       12.4735998243
  C        22.4634308184        3.2548440780       10.2545912848
  C        23.1653393216        4.3619955946       10.9715286753
  C        24.1745064898        4.0725091627       11.9036026696
  C        24.8099890275        5.1006555553       12.5952598562
  C        24.4558240991        6.4469399268       12.3772547406
  C        23.4703097410        6.7298997433       11.4129715846
  C        22.8304852711        5.7019457519       10.7212980895
  C        25.0902149501        7.5417677041       13.1524846713
  C        25.0766092486        7.5351607495       14.5747343747
  C        24.3752274780        6.5401147929       15.3263512363
  C        26.5654053312       17.8265401050        21.776496332138
  C        25.2648903726       17.8894541954        21.048190678838
  C        25.0109214670       18.9065564656        20.115065387438
  C        23.8029800078       18.9390904953        19.422374333838
  C        22.8159291718       17.9579370542        19.642876671138
  C        23.0648931901       16.9639061895        20.607459246538
  C        24.2742516219       16.9265884294        21.298229204238
  C        21.5495134276       17.9550583146        18.871646242438
  C        21.5577294918       17.9521481620        17.449703416338
  C        22.7679684290       17.8443676540        16.694103297038
  C        34.4123848538       17.2251582377        21.872092264838
  C        35.7131054448       17.1625135594        21.142985081438
  C        35.9154704819       16.1945008662        20.146758765638
  C        37.1020212707       16.1701388962        19.419604197638
  C        38.1180589213       17.1146087219        19.664839137338
  C        37.9191044615       18.0611595740        20.688283192938
  C        36.7310645231       18.0889077328        21.415781013138
  C        39.3724642654       17.1172572377        18.877376588938
  C        39.3650827212       17.1209692594        17.454844308138
  C        38.1569426170       17.2427603258        16.698485433538
  C        20.3138119665       17.9715453249        16.737573157238
  C        20.3237521601       17.9457226389        19.550157378538
  C        34.4346456095       17.2368424767       10.1850259468
  C        35.7361132626       17.1345102181       10.9065768597
  C        35.9383603250       16.1582538276       11.8937099395
  C        37.1287725157       16.1267037215       12.6163181279
  C        38.1467677465       17.0696818682       12.3722307440
  C        37.9505808128       18.0179797680       11.3504480175
  C        36.7595704967       18.0551071677       10.6313013266
  C        39.3968313098       17.0846127365       13.1653174914
  C        39.3775616988       17.1036437340       14.5870648650
  C        38.1628138472       17.2320823008       15.3318334602
  C        35.1016899556       26.6537226222       15.3055369342
  C        35.1657507612       26.6602013714       12.4955607613
  C        26.5683076078       17.8282268010       10.3278235378
  C        25.2528098217       17.8879809899       11.0266739394
  C        24.9771306905       18.9206560923       11.9353843770
  C        23.7590017492       18.9544378671       12.6076445858
  C        22.7880618573       17.9572018649       12.3912526365
  C        23.0559508973       16.9502481298       11.4467306254
  C        24.2753011929       16.9133824086       10.7740717668
  C        21.5237196986       17.9475273433       13.1620421084
  C        21.5439008259       17.9478220771       14.5830252666
  C        22.7613955420       17.8429989416       15.3278474735
  C        14.0453492195       17.8324054836       10.2838646995
  C        15.3516998918       17.8990253493       11.0010562957
  C        15.6092720532       18.9153659879       11.9338270830
  C        16.8197127301       18.9453246401       12.6224017826
  C        17.8037183329       17.9616486728       12.3991419544
  C        17.5519098658       16.9704009883       11.4324458522
  C        16.3409702313       16.9361992443       10.7449592179
  C        19.0699793743       17.9514554922       13.1694648815
  C        19.0627212398       17.9531051424       14.5911128255
  C        17.8521939228       17.8525667942       15.3465648451
  C        46.8016173046       17.2158784750       10.1567542983
  C        45.5075456155       17.1444641394       10.8964693544
  C        45.3021504189       16.1593700215       11.8751448517
  C        44.1177219059       16.1299139847       12.6068579606
  C        43.1070062579       17.0853511160       12.3831190034
  C        43.3090045249       18.0491767314       11.3764449747
  C        44.4943441790       18.0824692527       10.6453285218
  C        41.8534775633       17.0887716524       13.1733677854
  C        41.8620659406       17.0924883558       14.5958584736
  C        43.0724837403       17.1897494024       15.3520501653
  C        20.3065094709       17.9681343466       15.3034700572
  C        20.2951921971       17.9292558355       12.4908468720
  C        46.7837328360       17.2324558036        21.875945872638
  C        45.4818193037       17.1278315703        21.156001603538
  C        45.2632959713       16.1270888240        20.196694258238
  C        44.0758983221       16.0982001512        19.468925051438
  C        43.0759945425       17.0673396205        19.681860748838
  C        43.2858080889       18.0392821437        20.678295652538
  C        44.4740725646       18.0741340720        21.401742848438
  C        41.8278609470       17.0851912291        18.885987832838
  C        41.8490931945       17.0896730660        17.464314754238
  C        43.0663956248       17.1853033214        16.718963445138
  C        46.1530392316       26.6371631258        16.716021359238
  C        46.1619750083       26.6559422774        19.525673631738
  C        14.0407303162       17.8295453036        21.696315589638
  C        15.3552784447       17.9020658703        20.996701725738
  C        15.6233881414       18.9263103394        20.076523047738
  C        16.8474508659       18.9675680522        19.413925151238
  C        17.8286027032       17.9835262171        19.646847560938
  C        17.5660161395       16.9851264089        20.602137585238
  C        16.3441450395       16.9437191830        21.268840366638
  C        19.0948839693       17.9696245885        18.878794381638
  C        19.0759443155       17.9615936193        17.457646832538
  C        17.8586838524       17.8564436569        16.712602709638
  C        28.8162677831       14.0819098661       10.3664931102
  C        28.2181236924       12.9054873867       11.0578232645
  C        28.9522495572       12.1557536388       11.9886630496
  C        28.3573030352       11.0817759415       12.6464611130
  C        27.0158115585       10.7310919311       12.3935060526
  C        26.3036862698       11.4594565732       11.4237878031
  C        26.8948132999       12.5353777799       10.7676457529
  C        26.3491898829        9.6497634857       13.1552414430
  C        26.3334311413        9.6750938236       14.5760145348
  C        26.8407563301       10.7851119824       15.3232060490
  C        32.1772762833       21.2337479288       10.1475861761
  C        32.7686009936       22.4021144918       10.8663673179
  C        32.0138082509       23.0858785287       11.8324347095
  C        32.5794298295       24.1281872436       12.5608292293
  C        33.9164651761       24.5161102861       12.3463953824
  C        34.6538546417       23.8510414670       11.3482026407
  C        34.0904567359       22.8037403481       10.6207208615
  C        34.5396236526       25.5935480621       13.1507814876
  C        34.5145377637       25.5698458832       14.5731481395
  C        33.9947738220       24.4584545818       15.3093939364
  C        25.7137972891        8.6005463150       15.2917130204
  C        25.7107613301        8.6021394372       12.4789352960
  C        32.0707050108       21.1983374688        21.868763231138
  C        32.6385490649       22.3657396434        21.129951600838
  C        31.9018552761       23.0154025625        20.127461289738
  C        32.4721117843       24.0566351619        19.396662026538
  C        33.7932782694       24.4785186734        19.647273443638
  C        34.5105734119       23.8426490814        20.679318747438
  C        33.9456226903       22.7982132348        21.406111550538
  C        34.4330115324       25.5637840791        18.865127833538
  C        34.4586496883       25.5553755907        17.442310850538
  C        33.9667655253       24.4520397763        16.676006090238
  C        40.6099139970       17.0868398954        16.743119347738
  C        40.5980915050       17.1158256662        19.553641261138
  C        28.7334043441       14.0648019002        21.778735434438
  C        28.1186228816       12.9168407945        21.050640878938
  C        28.8622004135       12.1966665571        20.102745261938
  C        28.2795562325       11.1402150318        19.408291369038
  C        26.9377110851       10.7766446804        19.637566194938
  C        26.2112120422       11.4812540724        20.615470495538
  C        26.7923678231       12.5390997234        21.312187194438
  C        26.2985823984        9.6867701489        18.862811848938
  C        26.3073823248        9.6950107084        17.441147912738
  C        26.8253354235       10.7960043386        16.688969260038
  C        18.1352715710        3.1807913824       10.3171407223
  C        17.4056186742        4.2779151996       11.0156255243
  C        16.3900747729        3.9992953177       11.9432622421
  C        15.7420576428        5.0391091590       12.6067381289
  C        16.0935195896        6.3829276893       12.3669644594
  C        17.0826317724        6.6527011247       11.4029875682
  C        17.7320130421        5.6155286534       10.7379485549
  C        15.4690452274        7.4905192999       13.1300361777
  C        15.4844302639        7.4898931947       14.5517527903
  C        16.1860933202        6.4963627358       15.3049302461
  C        42.9457294004       31.8594081780       10.0728086321
  C        43.6459932700       30.7717223222       10.8167444334
  C        44.5915512819       31.0930023877       11.8028115071
  C        45.1971282159       30.0874290890       12.5505253891
  C        44.8706087004       28.7343823852       12.3356729328
  C        43.9447428139       28.4200843592       11.3224859029
  C        43.3360534425       29.4252538460       10.5743851601
  C        45.4881778965       27.6551008390       13.1388806115
  C        45.4924713354       27.6808105429       14.5605664318
  C        44.8053804600       28.6888553379       15.3071871106
  C        14.8555589218        8.5624533963       15.2641059064
  C        14.8736547596        8.5622261244       12.4514494226
  C        42.9463436722       31.9614386498        21.798798893138
  C        43.6914802578       30.8853314877        21.085310553538
  C        44.6561607482       31.1912366612        20.113082383738
  C        45.2776272645       30.1716391865        19.395342110338
  C        44.9536898345       28.8213336157        19.632867704638
  C        44.0200816038       28.5236735992        20.643529767538
  C        43.3918647234       29.5404472533        21.355728460738
  C        45.5627255739       27.7239532895        18.847609766038
  C        45.5330760025       27.7173194426        17.426313580938
  C        44.8266925323       28.7075164145        16.673372072538
  C        35.0757700579       26.6449009873        16.741247236738
  C        35.0463756917       26.6198441107        19.551952827538
  C        18.1484565672        3.2468217968        21.696410138238
  C        17.4296958666        4.3436122966        20.987148289338
  C        16.4145804339        4.0522384032        20.063508308138
  C        15.7661739766        5.0827988268        19.388090758138
  C        16.1206029098        6.4280902697        19.610868413638
  C        17.1118161491        6.7115743061        20.568276337738
  C        17.7595590318        5.6827332536        21.248087788338
  C        15.4900512561        7.5237367300        18.838384708738
  C        15.4957787221        7.5070258157        17.417240911738
  C        16.1924666707        6.5052794842        16.670535493038
 Zr         9.2962817125       16.0529392937        22.172017969738
 Zr        49.8359607466       16.0069963995        9.7466251276
 Zr        22.0730692681        0.0292859268        22.179010820238
 Zr        42.4606742962       35.1530262478        9.8008547287
 Zr        29.5674040655       19.0440134430        22.249255629138
 Zr        29.5719290222       19.1603811121        9.8908442231
 Zr        11.0372026969       19.0523237547        9.8277604882
 Zr        11.0432138544       19.1551006292        22.241046986738
 Zr        31.3348062455       16.1085807583        9.8761721867
 Zr        31.3547139218       16.0203639710        22.214014787138
 Zr        18.6008409969       -0.0021171308        9.7635459921
 Zr        18.5064783991       -0.0081250078        22.203269704138
 Zr        12.3010175193       16.3234306275        23.980193146838
 Zr        48.6155129828       18.8328403220        8.0103265542
 Zr        20.3147471224        2.4729392309        23.980530867438
 Zr        40.6426198238       32.6862734708        23.967953460038
 Zr        28.3285098935       16.3259827575        8.0833651586
 Zr        32.6050872016       18.8320043323        8.0452228736
  H        10.6722663353       12.4660908954        19.894123107538
  H        11.6942652706       10.5511767765        18.652213856038
  H        15.3911196354       11.1678361261        20.762340225838
  H        14.3507790662       13.0706440602        22.007704426538
  H        13.3756607301       11.6308168467        17.190952623838
  H        50.3224960545       22.7486286994        19.976910098738
  H        49.3192527202       24.6229849543        18.670765059838
  H        45.6415794665       24.1607636495        20.853225015138
  H        46.6625630681       22.2899655539        22.161587570638
  H        47.6294737753       23.5757859708        17.235967047738
  H        14.8716630856        8.5880155227        20.598275116238
  H        50.2867791994       22.7027893525       12.0601643307
  H        49.2687062541       24.5756137766       13.3602382032
  H        45.6099196697       24.1087362095       11.1462808879
  H        46.6520954745       22.2535135235        9.8319963061
  H        47.6074240745       23.5517363473       14.7968411406
  H        40.6311889791       17.0612255552       11.4100026909
  H        10.6808018498       12.4669856207       12.0934857859
  H        11.6885950832       10.5248227080       13.2972070845
  H        15.3922792051       11.1573552549       11.2048183360
  H        14.3641750869       13.0859878259        9.9894962825
  H        13.3749831578       11.6215872532       14.7529718938
  H        24.4778509966        3.0280803903        19.901751828538
  H        25.6115904770        4.8869413844        18.668467065438
  H        23.2234718675        7.7526775054        20.809496495038
  H        22.1094287375        5.8841591699        22.045586884138
  H        23.8096179198        5.7866583622        17.230162871338
  H        36.3575320948       32.1924842400        19.974940690238
  H        35.2074819833       30.3762209866        18.709415562538
  H        37.4652747269       27.4376739108        20.892975284538
  H        38.5951103290       29.2670489065        22.168881252538
  H        36.9737638714       29.4581956487        17.289564059138
  H        25.7007158887        8.6152549194        20.625637409438
  H        36.4506347458       32.2439872137       12.1112572038
  H        35.3335278528       30.4335451476       13.4091810808
  H        37.5342332364       27.4871739821       11.1765600609
  H        38.6253703349       29.3093452605        9.8648711167
  H        37.0105332410       29.4769809044       14.8530782692
  H        46.1086092624       26.5872608814       11.3855642085
  H        24.4506483637        3.0333808062       12.0676862599
  H        25.5952705701        4.8700793502       13.3120334871
  H        23.1858853480        7.7652312531       11.2364138682
  H        22.0534372635        5.9166212224        9.9912883500
  H        23.8072142608        5.7847320024       14.7911841563
  H        25.7691388941       19.6685837949        19.950186784938
  H        23.6077836873       19.7329064713        18.704558585138
  H        22.3117107527       16.1987902209        20.784174262938
  H        24.4802956009       16.1471999845        22.028047721038
  H        23.7078678943       17.7292804148        17.226200021538
  H        35.1238334492       15.4756185151        19.949296385738
  H        37.2567902048       15.4115563938        18.655515223438
  H        38.6946373003       18.7990520493        20.883155855438
  H        36.5622333151       18.8352773082        22.188641833238
  H        37.2191584667       17.3781668585        17.229724483438
  H        20.3267894255       17.9711770395        20.638407210838
  H        35.1443859768       15.4423035431       12.0932639349
  H        37.2826079628       15.3669954573       13.3795294860
  H        38.7288773493       18.7527764183       11.1551580602
  H        36.5888746004       18.8067053374        9.8643408237
  H        37.2293560674       17.3583263407       14.7908687583
  H        35.1514076545       26.6826415908       11.4074993044
  H        25.7285836212       19.6901146957       12.0961354640
  H        23.5442407551       19.7569626436       13.3100013260
  H        22.3123377709       16.1747590442       11.2749747543
  H        24.5001504717       16.1245498329       10.0602816031
  H        23.6961698246       17.7276140809       14.7869771381
  H        14.8500383508       19.6754001641       12.1038473473
  H        17.0180157304       19.7376756487       13.3409818588
  H        18.3034372857       16.2043500820       11.2528361236
  H        16.1319091914       16.1584356872       10.0143616792
  H        16.9120435880       17.7384001163       14.8149278671
  H        46.0883465190       15.4302810448       12.0565411139
  H        43.9612710530       15.3585254845       13.3577522140
  H        42.5374640398       18.7953174619       11.1979194977
  H        44.6649604536       18.8417147936        9.8855839489
  H        44.0133619230       17.2998853867       14.8205055850
  H        20.2926648808       17.9503166860       11.4025336936
  H        46.0394543829       15.3851492019        20.023278538938
  H        43.9102357919       15.3201763577        18.726858999838
  H        42.5200589645       18.7929290995        20.849924360638
  H        44.6552474657       18.8432831256        22.148555218738
  H        44.0027569758       17.2909066638        17.259239566838
  H        46.1986987070       26.6824062824        20.613125251738
  H        14.8631145458       19.6837120976        19.899170518138
  H        17.0573771534       19.7652444330        18.704614709438
  H        18.3162543494       16.2189940541        20.786601395938
  H        16.1246080212       16.1622734691        21.992281811638
  H        16.9233959556       17.7452828188        17.253027513138
  H        29.9873314014       12.4271912488       12.1829365063
  H        28.9271295201       10.5009331015       13.3685207232
  H        25.2671690512       11.1979144295       11.2212206972
  H        26.3413932108       13.1199793558       10.0370252396
  H        27.2144189211       11.6508381303       14.7844062336
  H        30.9870324540       22.7742861702       12.0081530703
  H        31.9876640713       24.6564596418       13.3051855168
  H        35.6887585514       24.1394937374       11.1756950288
  H        34.6669632380       22.2665392326        9.8710528224
  H        33.6435191500       23.5883209211       14.7621366777
  H        25.7415542046        8.5848355188       11.3909238905
  H        30.8869135043       22.6814149875        19.923522191438
  H        31.8925593438       24.5593534756        18.625423341638
  H        35.5332618524       24.1546412627        20.880839036138
  H        34.5083053203       22.2866118403        22.183339744238
  H        33.5940610264       23.5766951348        17.200445349838
  H        40.5936962467       17.0851411615        20.641567073838
  H        29.8998824587       12.4735924153        19.931732087138
  H        28.8626057761       10.5775994388        18.682398881938
  H        25.1731666804       11.2115050300        20.798884444338
  H        26.2288071137       13.0998508594        22.054203290338
  H        27.1859749845       11.6703905692        17.222869103838
  H        16.1183618969        2.9627129563       12.1297440175
  H        14.9527451569        4.8194978951       13.3224783025
  H        17.3646534454        7.6856613119       11.2097370395
  H        18.5138110297        5.8183736053       10.0098968147
  H        16.7525926047        5.7389819088       14.7714334887
  H        44.8278787613       32.1400702708       11.9770086905
  H        45.9369863043       30.3411159717       13.3064973777
  H        43.6819160702       27.3780423023       11.1524194087
  H        42.5994125172       29.1899238263        9.8097425738
  H        44.2299078830       29.4365399132       14.7688964054
  H        14.8497859592        8.5453861039       11.3632346802
  H        44.8997914620       32.2339106507        19.921711473538
  H        46.0245742686       30.4128217579        18.642130373638
  H        43.7629144228       27.4839654507        20.834937367138
  H        42.6452250785       29.3176305089        22.114028613338
  H        44.2681118259       29.4703520135        17.207959612838
  H        35.0007456472       26.6309983469        20.639356919638
  H        16.1436504000        3.0126295948        19.893722363238
  H        14.9739164925        4.8558452952        18.677962905038
  H        17.3950919312        7.7470851401        20.745290273238
  H        18.5422381598        5.8932746803        21.973035929638
  H        16.7639515212        5.7550650980        17.208954852238
  O        10.6498786194       14.3651531017        21.475596570538
  O        12.6131093129       14.6574395758        22.573659133938
  O        49.1475874581       16.8459733820        23.979505568538
  O        50.3500850770       20.9362647991        21.638022206238
  O        48.3484767692       20.5932505234        22.655783326638
  O        11.0509140445       17.0540006611        22.490413183738
  O        50.3207164111       20.8817423270       10.4068782509
  O        48.3466323437       20.5866734110        9.3270528579
  O        49.5433219467       18.2484458799       10.0682973700
  O        12.3587313443       18.6246131505        7.9996505294
  O        48.6931186101       14.1486582335        22.741050134638
  O         8.2098138256       14.2104260382        9.3225530075
  O        10.7351723080       14.5067500988       10.6643667923
  O        12.5716989871       14.5827258514        9.3285604964
  O        22.8443256029        2.0428037935        21.476946085638
  O        21.6050466424        3.5921093539        22.579469656038
  O        42.0578542609       34.1369989288        23.968775512938
  O        37.9812988941       33.1365470500        21.562224025438
  O        39.2171916232       31.5750732751        22.655383678238
  O        20.3083382463        1.0395262836        22.491693189938
  O        38.0241717585       33.1846415329       10.4157893098
  O        39.2179803737       31.5826100312        9.3278556167
  O        40.6521193905       33.7690600069       10.0602154482
  O        18.2557940790        1.3761842183        7.9967920945
  O        44.6222234759       35.1005299924        22.748560507938
  O        24.2054194184       -0.0000505311        9.3208143515
  O        22.7530940641        2.0570198617       10.5832913871
  O        21.6244764274        3.5959667639        9.3424992105
  O        27.4617377340       18.6959016871        21.480256971638
  O        26.6928953136       16.9162150549        22.659046861038
  O        30.6301897080       19.3443465983        8.0644579655
  O        33.5351426463       16.3428788873        21.574610918038
  O        34.2652545352       18.1693662153        22.725447454538
  O        29.5342485551       17.0133955970        22.566756084438
  O        33.5474756441       16.3383653584       10.4154822271
  O        34.2936033603       18.2376882520        9.4046038479