 DBCSR| CPU Multiplication driver                                           XSMM
 DBCSR| Multrec recursion limit                                              512
 DBCSR| Multiplication stack size                                           1000
 DBCSR| Maximum elements for images                                    UNLIMITED
 DBCSR| Multiplicative factor virtual images                                   1
 DBCSR| Use multiplication densification                                       T
 DBCSR| Multiplication size stacks                                             3
 DBCSR| Number of 3D layers                                               SINGLE
 DBCSR| Use MPI memory allocation                                              T
 DBCSR| Use RMA algorithm                                                      F
 DBCSR| Use Communication thread                                               T
 DBCSR| Communication thread load                                             87


  **** **** ******  **  PROGRAM STARTED AT               2021-11-20 22:08:24.427
 ***** ** ***  *** **   PROGRAM STARTED ON         node1476.palmetto.clemson.edu
 **    ****   ******    PROGRAM STARTED BY                               svicchi
 ***** **    ** ** **   PROGRAM PROCESS ID                               2332903
  **** **  *******  **  PROGRAM STARTED IN  /scratch2/svicchi/CP2K-4052782.pbs02

 CP2K| version string:                                          CP2K version 7.1
 CP2K| source code revision number:                                  git:e635599
 CP2K| cp2kflags: libint fftw3 libxc parallel mpi3 scalapack xsmm               
 CP2K| is freely available from                            https://www.cp2k.org/
 CP2K| Program compiled at                          Wed Aug 12 10:01:37 EDT 2020
 CP2K| Program compiled on                           util02.palmetto.clemson.edu
 CP2K| Program compiled for                          linux-centos8-ivybridge-gcc
 CP2K| Data directory path    /software/spackages/linux-centos8-ivybridge/gcc-8.
 CP2K| Input file name                 033_Zr18_C264_Ni4_O96_H182_UKS-multi3.inp

 GLOBAL| Force Environment number                                              1
 GLOBAL| Basis set file name                                          BASIS_file
 GLOBAL| Potential file name                                     POTENTIALS_file
 GLOBAL| MM Potential file name                                     MM_POTENTIAL
 GLOBAL| Coordinate file name           033_Zr18_C264_Ni4_O96_H182_UKS-multi3.xy
 GLOBAL| Method name                                                        CP2K
 GLOBAL| Project name                   info-026-033_Zr18_C264_Ni4_O96_H182_UKS-
 GLOBAL| Preferred FFT library                                             FFTW3
 GLOBAL| Preferred diagonalization lib.                                       SL
 GLOBAL| Run type                                           VIBRATIONAL_ANALYSIS
 GLOBAL| All-to-all communication in single precision                          F
 GLOBAL| FFTs using library dependent lengths                                  F
 GLOBAL| Global print level                                               MEDIUM
 GLOBAL| MPI I/O enabled                                                       T
 GLOBAL| Total number of message passing processes                            16
 GLOBAL| Number of threads for this process                                    1
 GLOBAL| This output is from process                                           0
 GLOBAL| CPU model name                Intel(R) Xeon(R) CPU E5-2670 v2 @ 2.50GHz
 GLOBAL| CPUID                                                              1001

 MEMORY| system memory details [Kb]
 MEMORY|                        rank 0           min           max       average
 MEMORY| MemTotal            131713748     131713748     131713748     131713748
 MEMORY| MemFree             124800292     124800292     124800292     124800292
 MEMORY| Buffers                  6408          6408          6408          6408
 MEMORY| Cached                2747592       2747592       2747592       2747592
 MEMORY| Slab                  1085504       1085504       1085504       1085504
 MEMORY| SReclaimable           643572        643572        643572        643572
 MEMORY| MemLikelyFree       128197864     128197864     128197864     128197864


 *** Fundamental physical constants (SI units) ***

 *** Literature: B. J. Mohr and B. N. Taylor,
 ***             CODATA recommended values of the fundamental physical
 ***             constants: 2006, Web Version 5.1
 ***             http://physics.nist.gov/constants

 Speed of light in vacuum [m/s]                             2.99792458000000E+08
 Magnetic constant or permeability of vacuum [N/A**2]       1.25663706143592E-06
 Electric constant or permittivity of vacuum [F/m]          8.85418781762039E-12
 Planck constant (h) [J*s]                                  6.62606896000000E-34
 Planck constant (h-bar) [J*s]                              1.05457162825177E-34
 Elementary charge [C]                                      1.60217648700000E-19
 Electron mass [kg]                                         9.10938215000000E-31
 Electron g factor [ ]                                     -2.00231930436220E+00
 Proton mass [kg]                                           1.67262163700000E-27
 Fine-structure constant                                    7.29735253760000E-03
 Rydberg constant [1/m]                                     1.09737315685270E+07
 Avogadro constant [1/mol]                                  6.02214179000000E+23
 Boltzmann constant [J/K]                                   1.38065040000000E-23
 Atomic mass unit [kg]                                      1.66053878200000E-27
 Bohr radius [m]                                            5.29177208590000E-11

 *** Conversion factors ***

 [u] -> [a.u.]                                              1.82288848426455E+03
 [Angstrom] -> [Bohr] = [a.u.]                              1.88972613288564E+00
 [a.u.] = [Bohr] -> [Angstrom]                              5.29177208590000E-01
 [a.u.] -> [s]                                              2.41888432650478E-17
 [a.u.] -> [fs]                                             2.41888432650478E-02
 [a.u.] -> [J]                                              4.35974393937059E-18
 [a.u.] -> [N]                                              8.23872205491840E-08
 [a.u.] -> [K]                                              3.15774647902944E+05
 [a.u.] -> [kJ/mol]                                         2.62549961709828E+03
 [a.u.] -> [kcal/mol]                                       6.27509468713739E+02
 [a.u.] -> [Pa]                                             2.94210107994716E+13
 [a.u.] -> [bar]                                            2.94210107994716E+08
 [a.u.] -> [atm]                                            2.90362800883016E+08
 [a.u.] -> [eV]                                             2.72113838565563E+01
 [a.u.] -> [Hz]                                             6.57968392072181E+15
 [a.u.] -> [1/cm] (wave numbers)                            2.19474631370540E+05
 [a.u./Bohr**2] -> [1/cm]                                   5.14048714338585E+03
 

 CELL_TOP| Volume [angstrom^3]:                                        22838.217
 CELL_TOP| Vector a [angstrom    40.611     0.000     0.000    |a| =      40.611
 CELL_TOP| Vector b [angstrom    20.305    35.170     0.000    |b| =      40.611
 CELL_TOP| Vector c [angstrom     0.000     0.000    15.990    |c| =      15.990
 CELL_TOP| Angle (b,c), alpha [degree]:                                   90.000
 CELL_TOP| Angle (a,c), beta  [degree]:                                   90.000
 CELL_TOP| Angle (a,b), gamma [degree]:                                   60.000
 CELL_TOP| Requested initial symmetry:                       MONOCLINIC_GAMMA_AB
 CELL_TOP| Numerically orthorhombic:                                          NO

 CELL| Volume [angstrom^3]:                                            22838.217
 CELL| Vector a [angstrom]:      40.611     0.000     0.000    |a| =      40.611
 CELL| Vector b [angstrom]:      20.305    35.170     0.000    |b| =      40.611
 CELL| Vector c [angstrom]:       0.000     0.000    15.990    |c| =      15.990
 CELL| Angle (b,c), alpha [degree]:                                       90.000
 CELL| Angle (a,c), beta  [degree]:                                       90.000
 CELL| Angle (a,b), gamma [degree]:                                       60.000
 CELL| Requested initial symmetry:                           MONOCLINIC_GAMMA_AB
 CELL| Numerically orthorhombic:                                              NO

 CELL_REF| Volume [angstrom^3]:                                        22838.217
 CELL_REF| Vector a [angstrom    40.611     0.000     0.000    |a| =      40.611
 CELL_REF| Vector b [angstrom    20.305    35.170     0.000    |b| =      40.611
 CELL_REF| Vector c [angstrom     0.000     0.000    15.990    |c| =      15.990
 CELL_REF| Angle (b,c), alpha [degree]:                                   90.000
 CELL_REF| Angle (a,c), beta  [degree]:                                   90.000
 CELL_REF| Angle (a,b), gamma [degree]:                                   60.000
 CELL_REF| Requested initial symmetry:                       MONOCLINIC_GAMMA_AB
 CELL_REF| Numerically orthorhombic:                                          NO

 *******************************************************************************
 *******************************************************************************
 **                                                                           **
 **     #####                         ##              ##                      **
 **    ##   ##            ##          ##              ##                      **
 **   ##     ##                       ##            ######                    **
 **   ##     ##  ##   ##  ##   #####  ##  ##   ####   ##    #####    #####    **
 **   ##     ##  ##   ##  ##  ##      ## ##   ##      ##   ##   ##  ##   ##   **
 **   ##  ## ##  ##   ##  ##  ##      ####     ###    ##   ######   ######    **
 **    ##  ###   ##   ##  ##  ##      ## ##      ##   ##   ##       ##        **
 **     #######   #####   ##   #####  ##  ##  ####    ##    #####   ##        **
 **           ##                                                    ##        **
 **                                                                           **
 **                                                ... make the atoms dance   **
 **                                                                           **
 **            Copyright (C) by CP2K developers group (2000 - 2019)           **
 **                                                                           **
 *******************************************************************************

 DFT| Spin unrestricted (spin-polarized) Kohn-Sham calculation               UKS
 DFT| Multiplicity                                                             3
 DFT| Number of spin states                                                    2
 DFT| Charge                                                                   0
 DFT| Self-interaction correction (SIC)                                       NO
 DFT| Cutoffs: density                                              1.000000E-10
 DFT|          gradient                                             1.000000E-10
 DFT|          tau                                                  1.000000E-10
 DFT|          cutoff_smoothing_range                               0.000000E+00
 DFT| XC density smoothing                                                  NONE
 DFT| XC derivatives                                                          PW
 FUNCTIONAL| ROUTINE=NEW
 FUNCTIONAL| PBE:
 FUNCTIONAL| J.P.Perdew, K.Burke, M.Ernzerhof, Phys. Rev. Letter, vol. 77, n 18,
 FUNCTIONAL|  pp. 3865-3868, (1996){spin polarized}                             
 vdW POTENTIAL|                                                   Pair Potential
 vdW POTENTIAL|          DFT-D3 (Version 3.1)
 vdW POTENTIAL|          Potential Form: S. Grimme et al, JCP 132: 154104 (2010)
 vdW POTENTIAL|          BJ Damping: S. Grimme et al, JCC 32: 1456 (2011)
 vdW POTENTIAL|          Cutoff Radius [Bohr]:                             20.00
 vdW POTENTIAL|          s6 Scaling Factor:                               1.0000
 vdW POTENTIAL|          a1 Damping Factor:                               0.4289
 vdW POTENTIAL|          s8 Scaling Factor:                               0.7875
 vdW POTENTIAL|          a2 Damping Factor:                               4.4407
 vdW POTENTIAL|          Cutoff for CN calculation:                   0.1000E-05

 QS| Method:                                                                 GPW
 QS| Density plane wave grid type                        NON-SPHERICAL FULLSPACE
 QS| Number of grid levels:                                                    5
 QS| Density cutoff [a.u.]:                                                180.0
 QS| Multi grid cutoff [a.u.]: 1) grid level                               180.0
 QS|                           2) grid level                                60.0
 QS|                           3) grid level                                20.0
 QS|                           4) grid level                                 6.7
 QS|                           5) grid level                                 2.2
 QS| Grid level progression factor:                                          3.0
 QS| Relative density cutoff [a.u.]:                                        40.0
 QS| Consistent realspace mapping and integration 
 QS| Interaction thresholds: eps_pgf_orb:                                1.0E-05
 QS|                         eps_filter_matrix:                          0.0E+00
 QS|                         eps_core_charge:                            1.0E-12
 QS|                         eps_rho_gspace:                             1.0E-10
 QS|                         eps_rho_rspace:                             1.0E-10
 QS|                         eps_gvg_rspace:                             1.0E-05
 QS|                         eps_ppl:                                    1.0E-02
 QS|                         eps_ppnl:                                   1.0E-07


 ATOMIC KIND INFORMATION

  1. Atomic kind: C                                     Number of atoms:     264

     Orbital Basis Set                                     DZVP-MOLOPT-SR-GTH-q4

       Number of orbital shell sets:                                           1
       Number of orbital shells:                                               5
       Number of primitive Cartesian functions:                                5
       Number of Cartesian basis functions:                                   14
       Number of spherical basis functions:                                   13
       Norm type:                                                              2

       Normalised Cartesian orbitals:

                        Set   Shell   Orbital            Exponent    Coefficient

                          1       1    2s                5.605331       0.322515
                                                         2.113016       0.213043
                                                         0.769911      -0.209686
                                                         0.348157      -0.219794
                                                         0.128212      -0.022789

                          1       2    3s                5.605331       0.552234
                                                         2.113016       0.082072
                                                         0.769911       0.007843
                                                         0.348157       0.136893
                                                         0.128212       0.074283

                          1       3    3px               5.605331      -0.703879
                                                         2.113016      -0.642521
                                                         0.769911      -0.374851
                                                         0.348157      -0.139743
                                                         0.128212      -0.027849
                          1       3    3py               5.605331      -0.703879
                                                         2.113016      -0.642521
                                                         0.769911      -0.374851
                                                         0.348157      -0.139743
                                                         0.128212      -0.027849
                          1       3    3pz               5.605331      -0.703879
                                                         2.113016      -0.642521
                                                         0.769911      -0.374851
                                                         0.348157      -0.139743
                                                         0.128212      -0.027849

                          1       4    4px               5.605331      -0.480376
                                                         2.113016      -0.552894
                                                         0.769911      -0.316145
                                                         0.348157       0.210505
                                                         0.128212       0.076095
                          1       4    4py               5.605331      -0.480376
                                                         2.113016      -0.552894
                                                         0.769911      -0.316145
                                                         0.348157       0.210505
                                                         0.128212       0.076095
                          1       4    4pz               5.605331      -0.480376
                                                         2.113016      -0.552894
                                                         0.769911      -0.316145
                                                         0.348157       0.210505
                                                         0.128212       0.076095

                          1       5    4dx2              5.605331       0.640026
                                                         2.113016       0.274300
                                                         0.769911       0.446711
                                                         0.348157       0.028674
                                                         0.128212       0.029790
                          1       5    4dxy              5.605331       1.108557
                                                         2.113016       0.475102
                                                         0.769911       0.773726
                                                         0.348157       0.049666
                                                         0.128212       0.051599
                          1       5    4dxz              5.605331       1.108557
                                                         2.113016       0.475102
                                                         0.769911       0.773726
                                                         0.348157       0.049666
                                                         0.128212       0.051599
                          1       5    4dy2              5.605331       0.640026
                                                         2.113016       0.274300
                                                         0.769911       0.446711
                                                         0.348157       0.028674
                                                         0.128212       0.029790
                          1       5    4dyz              5.605331       1.108557
                                                         2.113016       0.475102
                                                         0.769911       0.773726
                                                         0.348157       0.049666
                                                         0.128212       0.051599
                          1       5    4dz2              5.605331       0.640026
                                                         2.113016       0.274300
                                                         0.769911       0.446711
                                                         0.348157       0.028674
                                                         0.128212       0.029790

     GTH Potential information for                                    GTH-PBE-q4

       Description:                       Goedecker-Teter-Hutter pseudopotential
                                           Goedecker et al., PRB 54, 1703 (1996)
                                          Hartwigsen et al., PRB 58, 3641 (1998)
                                                      Krack, TCA 114, 145 (2005)

       Gaussian exponent of the core charge distribution:               4.364419
       Electronic configuration (s p d ...):                               2   2

       Parameters of the local part of the GTH pseudopotential:

                          rloc        C1          C2          C3          C4
                        0.338471   -8.803674    1.339211

       Parameters of the non-local part of the GTH pseudopotential:

                   l      r(l)      h(i,j,l)

                   0    0.302576    9.622487
                   1    0.291507

  2. Atomic kind: Zr                                    Number of atoms:      18

     Orbital Basis Set                                    DZVP-MOLOPT-SR-GTH-q12

       Number of orbital shell sets:                                           1
       Number of orbital shells:                                               8
       Number of primitive Cartesian functions:                                7
       Number of Cartesian basis functions:                                   31
       Number of spherical basis functions:                                   26
       Norm type:                                                              2

       Normalised Cartesian orbitals:

                        Set   Shell   Orbital            Exponent    Coefficient

                          1       1    2s                7.568386      -0.292925
                                                         2.940870       1.053802
                                                         1.478550      -0.194175
                                                         0.699653      -0.477593
                                                         0.314575      -0.092850
                                                         0.129869       0.000474
                                                         0.046851      -0.000485

                          1       2    3s                7.568386      -0.107602
                                                         2.940870       0.453694
                                                         1.478550      -0.133469
                                                         0.699653      -0.242646
                                                         0.314575      -0.112324
                                                         0.129869       0.079936
                                                         0.046851       0.057275

                          1       3    4s                7.568386      -0.039443
                                                         2.940870      -0.239516
                                                         1.478550       0.462939
                                                         0.699653       0.054202
                                                         0.314575       0.378792
                                                         0.129869      -0.467495
                                                         0.046851       0.135277

                          1       4    3px               7.568386      -0.367032
                                                         2.940870       1.199938
                                                         1.478550      -0.729727
                                                         0.699653      -0.527717
                                                         0.314575      -0.102074
                                                         0.129869      -0.002163
                                                         0.046851      -0.000016
                          1       4    3py               7.568386      -0.367032
                                                         2.940870       1.199938
                                                         1.478550      -0.729727
                                                         0.699653      -0.527717
                                                         0.314575      -0.102074
                                                         0.129869      -0.002163
                                                         0.046851      -0.000016
                          1       4    3pz               7.568386      -0.367032
                                                         2.940870       1.199938
                                                         1.478550      -0.729727
                                                         0.699653      -0.527717
                                                         0.314575      -0.102074
                                                         0.129869      -0.002163
                                                         0.046851      -0.000016

                          1       5    4px               7.568386      -0.041149
                                                         2.940870       0.296409
                                                         1.478550      -0.285807
                                                         0.699653      -0.254468
                                                         0.314575       0.008755
                                                         0.129869       0.053085
                                                         0.046851       0.019526
                          1       5    4py               7.568386      -0.041149
                                                         2.940870       0.296409
                                                         1.478550      -0.285807
                                                         0.699653      -0.254468
                                                         0.314575       0.008755
                                                         0.129869       0.053085
                                                         0.046851       0.019526
                          1       5    4pz               7.568386      -0.041149
                                                         2.940870       0.296409
                                                         1.478550      -0.285807
                                                         0.699653      -0.254468
                                                         0.314575       0.008755
                                                         0.129869       0.053085
                                                         0.046851       0.019526

                          1       6    4dx2              7.568386      -0.104612
                                                         2.940870      -0.141339
                                                         1.478550       0.540679
                                                         0.699653       0.284252
                                                         0.314575       0.094561
                                                         0.129869       0.012195
                                                         0.046851       0.000412
                          1       6    4dxy              7.568386      -0.181193
                                                         2.940870      -0.244806
                                                         1.478550       0.936483
                                                         0.699653       0.492339
                                                         0.314575       0.163785
                                                         0.129869       0.021122
                                                         0.046851       0.000713
                          1       6    4dxz              7.568386      -0.181193
                                                         2.940870      -0.244806
                                                         1.478550       0.936483
                                                         0.699653       0.492339
                                                         0.314575       0.163785
                                                         0.129869       0.021122
                                                         0.046851       0.000713
                          1       6    4dy2              7.568386      -0.104612
                                                         2.940870      -0.141339
                                                         1.478550       0.540679
                                                         0.699653       0.284252
                                                         0.314575       0.094561
                                                         0.129869       0.012195
                                                         0.046851       0.000412
                          1       6    4dyz              7.568386      -0.181193
                                                         2.940870      -0.244806
                                                         1.478550       0.936483
                                                         0.699653       0.492339
                                                         0.314575       0.163785
                                                         0.129869       0.021122
                                                         0.046851       0.000713
                          1       6    4dz2              7.568386      -0.104612
                                                         2.940870      -0.141339
                                                         1.478550       0.540679
                                                         0.699653       0.284252
                                                         0.314575       0.094561
                                                         0.129869       0.012195
                                                         0.046851       0.000412

                          1       7    5dx2              7.568386      -0.107600
                                                         2.940870       0.230973
                                                         1.478550      -0.200541
                                                         0.699653      -0.193347
                                                         0.314575       0.007888
                                                         0.129869       0.006706
                                                         0.046851       0.006900
                          1       7    5dxy              7.568386      -0.186369
                                                         2.940870       0.400056
                                                         1.478550      -0.347346
                                                         0.699653      -0.334887
                                                         0.314575       0.013663
                                                         0.129869       0.011615
                                                         0.046851       0.011951
                          1       7    5dxz              7.568386      -0.186369
                                                         2.940870       0.400056
                                                         1.478550      -0.347346
                                                         0.699653      -0.334887
                                                         0.314575       0.013663
                                                         0.129869       0.011615
                                                         0.046851       0.011951
                          1       7    5dy2              7.568386      -0.107600
                                                         2.940870       0.230973
                                                         1.478550      -0.200541
                                                         0.699653      -0.193347
                                                         0.314575       0.007888
                                                         0.129869       0.006706
                                                         0.046851       0.006900
                          1       7    5dyz              7.568386      -0.186369
                                                         2.940870       0.400056
                                                         1.478550      -0.347346
                                                         0.699653      -0.334887
                                                         0.314575       0.013663
                                                         0.129869       0.011615
                                                         0.046851       0.011951
                          1       7    5dz2              7.568386      -0.107600
                                                         2.940870       0.230973
                                                         1.478550      -0.200541
                                                         0.699653      -0.193347
                                                         0.314575       0.007888
                                                         0.129869       0.006706
                                                         0.046851       0.006900

                          1       8    5fx3              7.568386       0.371480
                                                         2.940870      -0.155968
                                                         1.478550      -0.211323
                                                         0.699653      -0.255968
                                                         0.314575      -0.046738
                                                         0.129869      -0.005674
                                                         0.046851       0.000171
                          1       8    5fx2y             7.568386       0.830655
                                                         2.940870      -0.348756
                                                         1.478550      -0.472533
                                                         0.699653      -0.572361
                                                         0.314575      -0.104510
                                                         0.129869      -0.012687
                                                         0.046851       0.000382
                          1       8    5fx2z             7.568386       0.830655
                                                         2.940870      -0.348756
                                                         1.478550      -0.472533
                                                         0.699653      -0.572361
                                                         0.314575      -0.104510
                                                         0.129869      -0.012687
                                                         0.046851       0.000382
                          1       8    5fxy2             7.568386       0.830655
                                                         2.940870      -0.348756
                                                         1.478550      -0.472533
                                                         0.699653      -0.572361
                                                         0.314575      -0.104510
                                                         0.129869      -0.012687
                                                         0.046851       0.000382
                          1       8    5fxyz             7.568386       1.438737
                                                         2.940870      -0.604063
                                                         1.478550      -0.818452
                                                         0.699653      -0.991359
                                                         0.314575      -0.181017
                                                         0.129869      -0.021975
                                                         0.046851       0.000662
                          1       8    5fxz2             7.568386       0.830655
                                                         2.940870      -0.348756
                                                         1.478550      -0.472533
                                                         0.699653      -0.572361
                                                         0.314575      -0.104510
                                                         0.129869      -0.012687
                                                         0.046851       0.000382
                          1       8    5fy3              7.568386       0.371480
                                                         2.940870      -0.155968
                                                         1.478550      -0.211323
                                                         0.699653      -0.255968
                                                         0.314575      -0.046738
                                                         0.129869      -0.005674
                                                         0.046851       0.000171
                          1       8    5fy2z             7.568386       0.830655
                                                         2.940870      -0.348756
                                                         1.478550      -0.472533
                                                         0.699653      -0.572361
                                                         0.314575      -0.104510
                                                         0.129869      -0.012687
                                                         0.046851       0.000382
                          1       8    5fyz2             7.568386       0.830655
                                                         2.940870      -0.348756
                                                         1.478550      -0.472533
                                                         0.699653      -0.572361
                                                         0.314575      -0.104510
                                                         0.129869      -0.012687
                                                         0.046851       0.000382
                          1       8    5fz3              7.568386       0.371480
                                                         2.940870      -0.155968
                                                         1.478550      -0.211323
                                                         0.699653      -0.255968
                                                         0.314575      -0.046738
                                                         0.129869      -0.005674
                                                         0.046851       0.000171

     GTH Potential information for                                   GTH-PBE-q12

       Description:                       Goedecker-Teter-Hutter pseudopotential
                                           Goedecker et al., PRB 54, 1703 (1996)
                                          Hartwigsen et al., PRB 58, 3641 (1998)
                                                      Krack, TCA 114, 145 (2005)

       Gaussian exponent of the core charge distribution:               2.263468
       Electronic configuration (s p d ...):                           4   6   2

       Parameters of the local part of the GTH pseudopotential:

                          rloc        C1          C2          C3          C4
                        0.470000    7.796057   -1.893210

       Parameters of the non-local part of the GTH pseudopotential:

                   l      r(l)      h(i,j,l)

                   0    0.259829   23.380874   -8.571939
                                   -8.571939   11.066326
                   1    0.288969    8.592766   -5.377358
                                   -5.377358    6.362576
                   2    0.581245    0.027811    0.276862
                                    0.276862   -0.313932

  3. Atomic kind: H                                     Number of atoms:     182

     Orbital Basis Set                                     DZVP-MOLOPT-SR-GTH-q1

       Number of orbital shell sets:                                           1
       Number of orbital shells:                                               3
       Number of primitive Cartesian functions:                                5
       Number of Cartesian basis functions:                                    5
       Number of spherical basis functions:                                    5
       Norm type:                                                              2

       Normalised Cartesian orbitals:

                        Set   Shell   Orbital            Exponent    Coefficient

                          1       1    2s               10.068468      -0.133023
                                                         2.680223      -0.177618
                                                         0.791502      -0.258419
                                                         0.239116      -0.107525
                                                         0.082193      -0.014019

                          1       2    3s               10.068468       0.344673
                                                         2.680223       1.819821
                                                         0.791502      -0.999069
                                                         0.239116       0.017430
                                                         0.082193       0.082660

                          1       3    3px              10.068468       0.155326
                                                         2.680223       0.367157
                                                         0.791502       0.311480
                                                         0.239116       0.080105
                                                         0.082193       0.033440
                          1       3    3py              10.068468       0.155326
                                                         2.680223       0.367157
                                                         0.791502       0.311480
                                                         0.239116       0.080105
                                                         0.082193       0.033440
                          1       3    3pz              10.068468       0.155326
                                                         2.680223       0.367157
                                                         0.791502       0.311480
                                                         0.239116       0.080105
                                                         0.082193       0.033440

     GTH Potential information for                                    GTH-PBE-q1

       Description:                       Goedecker-Teter-Hutter pseudopotential
                                           Goedecker et al., PRB 54, 1703 (1996)
                                          Hartwigsen et al., PRB 58, 3641 (1998)
                                                      Krack, TCA 114, 145 (2005)

       Gaussian exponent of the core charge distribution:              12.500000
       Electronic configuration (s p d ...):                                   1

       Parameters of the local part of the GTH pseudopotential:

                          rloc        C1          C2          C3          C4
                        0.200000   -4.178900    0.724463

  4. Atomic kind: O                                     Number of atoms:      96

     Orbital Basis Set                                     DZVP-MOLOPT-SR-GTH-q6

       Number of orbital shell sets:                                           1
       Number of orbital shells:                                               5
       Number of primitive Cartesian functions:                                5
       Number of Cartesian basis functions:                                   14
       Number of spherical basis functions:                                   13
       Norm type:                                                              2

       Normalised Cartesian orbitals:

                        Set   Shell   Orbital            Exponent    Coefficient

                          1       1    2s               10.389228       0.396646
                                                         3.849621       0.208811
                                                         1.388401      -0.301641
                                                         0.496955      -0.274061
                                                         0.162492      -0.033677

                          1       2    3s               10.389228       0.303673
                                                         3.849621       0.240943
                                                         1.388401      -0.313066
                                                         0.496955      -0.043055
                                                         0.162492       0.213991

                          1       3    3px              10.389228      -1.530415
                                                         3.849621      -1.371928
                                                         1.388401      -0.761951
                                                         0.496955      -0.253695
                                                         0.162492      -0.035541
                          1       3    3py              10.389228      -1.530415
                                                         3.849621      -1.371928
                                                         1.388401      -0.761951
                                                         0.496955      -0.253695
                                                         0.162492      -0.035541
                          1       3    3pz              10.389228      -1.530415
                                                         3.849621      -1.371928
                                                         1.388401      -0.761951
                                                         0.496955      -0.253695
                                                         0.162492      -0.035541

                          1       4    4px              10.389228      -0.565392
                                                         3.849621      -0.038231
                                                         1.388401      -0.382373
                                                         0.496955       0.179070
                                                         0.162492       0.122714
                          1       4    4py              10.389228      -0.565392
                                                         3.849621      -0.038231
                                                         1.388401      -0.382373
                                                         0.496955       0.179070
                                                         0.162492       0.122714
                          1       4    4pz              10.389228      -0.565392
                                                         3.849621      -0.038231
                                                         1.388401      -0.382373
                                                         0.496955       0.179070
                                                         0.162492       0.122714

                          1       5    4dx2             10.389228       1.867377
                                                         3.849621       0.670994
                                                         1.388401       1.353441
                                                         0.496955       0.273538
                                                         0.162492       0.006620
                          1       5    4dxy             10.389228       3.234392
                                                         3.849621       1.162195
                                                         1.388401       2.344229
                                                         0.496955       0.473781
                                                         0.162492       0.011466
                          1       5    4dxz             10.389228       3.234392
                                                         3.849621       1.162195
                                                         1.388401       2.344229
                                                         0.496955       0.473781
                                                         0.162492       0.011466
                          1       5    4dy2             10.389228       1.867377
                                                         3.849621       0.670994
                                                         1.388401       1.353441
                                                         0.496955       0.273538
                                                         0.162492       0.006620
                          1       5    4dyz             10.389228       3.234392
                                                         3.849621       1.162195
                                                         1.388401       2.344229
                                                         0.496955       0.473781
                                                         0.162492       0.011466
                          1       5    4dz2             10.389228       1.867377
                                                         3.849621       0.670994
                                                         1.388401       1.353441
                                                         0.496955       0.273538
                                                         0.162492       0.006620

     GTH Potential information for                                    GTH-PBE-q6

       Description:                       Goedecker-Teter-Hutter pseudopotential
                                           Goedecker et al., PRB 54, 1703 (1996)
                                          Hartwigsen et al., PRB 58, 3641 (1998)
                                                      Krack, TCA 114, 145 (2005)

       Gaussian exponent of the core charge distribution:               8.360253
       Electronic configuration (s p d ...):                               2   4

       Parameters of the local part of the GTH pseudopotential:

                          rloc        C1          C2          C3          C4
                        0.244554  -16.667215    2.487311

       Parameters of the non-local part of the GTH pseudopotential:

                   l      r(l)      h(i,j,l)

                   0    0.220956   18.337458
                   1    0.211332

  5. Atomic kind: Ni                                    Number of atoms:       4

     Orbital Basis Set                                    DZVP-MOLOPT-SR-GTH-q18

       Number of orbital shell sets:                                           1
       Number of orbital shells:                                               8
       Number of primitive Cartesian functions:                                6
       Number of Cartesian basis functions:                                   31
       Number of spherical basis functions:                                   26
       Norm type:                                                              2

       Normalised Cartesian orbitals:

                        Set   Shell   Orbital            Exponent    Coefficient

                          1       1    2s               10.077428      -0.684558
                                                         5.847736      -0.844524
                                                         2.494033       1.088856
                                                         0.988355       0.395503
                                                         0.344978       0.010224
                                                         0.099466      -0.003250

                          1       2    3s               10.077428       0.096747
                                                         5.847736       0.162504
                                                         2.494033      -0.297192
                                                         0.988355      -0.319752
                                                         0.344978       0.088318
                                                         0.099466       0.118587

                          1       3    4s               10.077428       0.036437
                                                         5.847736      -0.381480
                                                         2.494033       0.003759
                                                         0.988355      -1.048256
                                                         0.344978       0.855825
                                                         0.099466      -0.176350

                          1       4    3px              10.077428      -3.133913
                                                         5.847736       3.027656
                                                         2.494033       2.353227
                                                         0.988355       0.554184
                                                         0.344978       0.019462
                                                         0.099466      -0.000291
                          1       4    3py              10.077428      -3.133913
                                                         5.847736       3.027656
                                                         2.494033       2.353227
                                                         0.988355       0.554184
                                                         0.344978       0.019462
                                                         0.099466      -0.000291
                          1       4    3pz              10.077428      -3.133913
                                                         5.847736       3.027656
                                                         2.494033       2.353227
                                                         0.988355       0.554184
                                                         0.344978       0.019462
                                                         0.099466      -0.000291

                          1       5    4px              10.077428      -0.112729
                                                         5.847736      -0.114008
                                                         2.494033      -0.347303
                                                         0.988355      -0.110323
                                                         0.344978       0.154096
                                                         0.099466       0.058386
                          1       5    4py              10.077428      -0.112729
                                                         5.847736      -0.114008
                                                         2.494033      -0.347303
                                                         0.988355      -0.110323
                                                         0.344978       0.154096
                                                         0.099466       0.058386
                          1       5    4pz              10.077428      -0.112729
                                                         5.847736      -0.114008
                                                         2.494033      -0.347303
                                                         0.988355      -0.110323
                                                         0.344978       0.154096
                                                         0.099466       0.058386

                          1       6    4dx2             10.077428       8.232726
                                                         5.847736       9.105758
                                                         2.494033       2.849835
                                                         0.988355       0.554319
                                                         0.344978       0.067245
                                                         0.099466       0.001940
                          1       6    4dxy             10.077428      14.259500
                                                         5.847736      15.771636
                                                         2.494033       4.936060
                                                         0.988355       0.960109
                                                         0.344978       0.116472
                                                         0.099466       0.003360
                          1       6    4dxz             10.077428      14.259500
                                                         5.847736      15.771636
                                                         2.494033       4.936060
                                                         0.988355       0.960109
                                                         0.344978       0.116472
                                                         0.099466       0.003360
                          1       6    4dy2             10.077428       8.232726
                                                         5.847736       9.105758
                                                         2.494033       2.849835
                                                         0.988355       0.554319
                                                         0.344978       0.067245
                                                         0.099466       0.001940
                          1       6    4dyz             10.077428      14.259500
                                                         5.847736      15.771636
                                                         2.494033       4.936060
                                                         0.988355       0.960109
                                                         0.344978       0.116472
                                                         0.099466       0.003360
                          1       6    4dz2             10.077428       8.232726
                                                         5.847736       9.105758
                                                         2.494033       2.849835
                                                         0.988355       0.554319
                                                         0.344978       0.067245
                                                         0.099466       0.001940

                          1       7    5dx2             10.077428      -2.715373
                                                         5.847736      -4.020640
                                                         2.494033      -1.397569
                                                         0.988355      -0.076143
                                                         0.344978       0.033435
                                                         0.099466       0.026032
                          1       7    5dxy             10.077428      -4.703164
                                                         5.847736      -6.963952
                                                         2.494033      -2.420661
                                                         0.988355      -0.131883
                                                         0.344978       0.057911
                                                         0.099466       0.045088
                          1       7    5dxz             10.077428      -4.703164
                                                         5.847736      -6.963952
                                                         2.494033      -2.420661
                                                         0.988355      -0.131883
                                                         0.344978       0.057911
                                                         0.099466       0.045088
                          1       7    5dy2             10.077428      -2.715373
                                                         5.847736      -4.020640
                                                         2.494033      -1.397569
                                                         0.988355      -0.076143
                                                         0.344978       0.033435
                                                         0.099466       0.026032
                          1       7    5dyz             10.077428      -4.703164
                                                         5.847736      -6.963952
                                                         2.494033      -2.420661
                                                         0.988355      -0.131883
                                                         0.344978       0.057911
                                                         0.099466       0.045088
                          1       7    5dz2             10.077428      -2.715373
                                                         5.847736      -4.020640
                                                         2.494033      -1.397569
                                                         0.988355      -0.076143
                                                         0.344978       0.033435
                                                         0.099466       0.026032

                          1       8    5fx3             10.077428      -0.467694
                                                         5.847736       0.618100
                                                         2.494033       0.066069
                                                         0.988355       0.262898
                                                         0.344978       0.004720
                                                         0.099466       0.007748
                          1       8    5fx2y            10.077428      -1.045795
                                                         5.847736       1.382114
                                                         2.494033       0.147734
                                                         0.988355       0.587859
                                                         0.344978       0.010555
                                                         0.099466       0.017325
                          1       8    5fx2z            10.077428      -1.045795
                                                         5.847736       1.382114
                                                         2.494033       0.147734
                                                         0.988355       0.587859
                                                         0.344978       0.010555
                                                         0.099466       0.017325
                          1       8    5fxy2            10.077428      -1.045795
                                                         5.847736       1.382114
                                                         2.494033       0.147734
                                                         0.988355       0.587859
                                                         0.344978       0.010555
                                                         0.099466       0.017325
                          1       8    5fxyz            10.077428      -1.811371
                                                         5.847736       2.393892
                                                         2.494033       0.255883
                                                         0.988355       1.018201
                                                         0.344978       0.018282
                                                         0.099466       0.030008
                          1       8    5fxz2            10.077428      -1.045795
                                                         5.847736       1.382114
                                                         2.494033       0.147734
                                                         0.988355       0.587859
                                                         0.344978       0.010555
                                                         0.099466       0.017325
                          1       8    5fy3             10.077428      -0.467694
                                                         5.847736       0.618100
                                                         2.494033       0.066069
                                                         0.988355       0.262898
                                                         0.344978       0.004720
                                                         0.099466       0.007748
                          1       8    5fy2z            10.077428      -1.045795
                                                         5.847736       1.382114
                                                         2.494033       0.147734
                                                         0.988355       0.587859
                                                         0.344978       0.010555
                                                         0.099466       0.017325
                          1       8    5fyz2            10.077428      -1.045795
                                                         5.847736       1.382114
                                                         2.494033       0.147734
                                                         0.988355       0.587859
                                                         0.344978       0.010555
                                                         0.099466       0.017325
                          1       8    5fz3             10.077428      -0.467694
                                                         5.847736       0.618100
                                                         2.494033       0.066069
                                                         0.988355       0.262898
                                                         0.344978       0.004720
                                                         0.099466       0.007748

     GTH Potential information for                                   GTH-PBE-q18

       Description:                       Goedecker-Teter-Hutter pseudopotential
                                           Goedecker et al., PRB 54, 1703 (1996)
                                          Hartwigsen et al., PRB 58, 3641 (1998)
                                                      Krack, TCA 114, 145 (2005)

       Gaussian exponent of the core charge distribution:               4.081633
       Electronic configuration (s p d ...):                           4   6   8

       Parameters of the local part of the GTH pseudopotential:

                          rloc        C1          C2          C3          C4
                        0.350000    2.102166    0.648484

       Parameters of the non-local part of the GTH pseudopotential:

                   l      r(l)      h(i,j,l)

                   0    0.261295    0.622658    9.970227
                                    9.970227  -12.871507
                   1    0.224253  -11.142708   12.429566
                                   12.429566  -14.706861
                   2    0.215348  -12.628146


 MOLECULE KIND INFORMATION


 All atoms are their own molecule, skipping detailed information


 TOTAL NUMBERS AND MAXIMUM NUMBERS

  Total number of            - Atomic kinds:                                   5
                             - Atoms:                                        564
                             - Shell sets:                                   564
                             - Shells:                                      2522
                             - Primitive Cartesian functions:               2860
                             - Cartesian basis functions:                   6632
                             - Spherical basis functions:                   6162

  Maximum angular momentum of- Orbital basis functions:                        3
                             - Local part of the GTH pseudopotential:          2
                             - Non-local part of the GTH pseudopotential:      4


 MODULE QUICKSTEP:  ATOMIC COORDINATES IN angstrom

  Atom  Kind  Element       X           Y           Z          Z(eff)       Mass

       1     1 C    6   11.858574   14.053475   21.731393      4.00      12.0107
       2     1 C    6   12.455989   12.890411   21.013108      4.00      12.0107
       3     1 C    6   11.704311   12.171724   20.071264      4.00      12.0107
       4     1 C    6   12.280587   11.109490   19.378859      4.00      12.0107
       5     1 C    6   13.621059   10.739404   19.606734      4.00      12.0107
       6     1 C    6   14.354185   11.442696   20.580444      4.00      12.0107
       7     1 C    6   13.781374   12.507676   21.272023      4.00      12.0107
       8     1 C    6   14.260496    9.648681   18.833327      4.00      12.0107
       9     1 C    6   14.255690    9.656509   17.411613      4.00      12.0107
      10     1 C    6   13.742529   10.758612   16.657669      4.00      12.0107
      11     1 C    6   49.126549   21.233367   21.869590      4.00      12.0107
      12     1 C    6   48.549676   22.401194   21.142480      4.00      12.0107
      13     1 C    6   49.299748   23.068591   20.161560      4.00      12.0107
      14     1 C    6   48.732775   24.107657   19.428307      4.00      12.0107
      15     1 C    6   47.402171   24.509153   19.656819      4.00      12.0107
      16     1 C    6   46.671152   23.860165   20.670212      4.00      12.0107
      17     1 C    6   47.233643   22.815318   21.399621      4.00      12.0107
      18     1 C    6   46.771964   25.586857   18.859535      4.00      12.0107
      19     1 C    6   46.761042   25.557278   17.437770      4.00      12.0107
      20     1 C    6   47.260999   24.442192   16.694282      4.00      12.0107
      21     1 C    6   14.859478    8.570082   16.698340      4.00      12.0107
      22     1 C    6   14.891273    8.596713   19.509964      4.00      12.0107
      23     1 C    6   49.112886   21.203447   10.145340      4.00      12.0107
      24     1 C    6   48.527452   22.364763   10.872466      4.00      12.0107
      25     1 C    6   49.266690   23.025547   11.865334      4.00      12.0107
      26     1 C    6   48.690331   24.060093   12.596768      4.00      12.0107
      27     1 C    6   47.359849   24.456697   12.358634      4.00      12.0107
      28     1 C    6   46.639403   23.811685   11.335206      4.00      12.0107
      29     1 C    6   47.212984   22.775782   10.603438      4.00      12.0107
      30     1 C    6   46.721412   25.531677   13.149643      4.00      12.0107
      31     1 C    6   46.733233   25.528077   14.571343      4.00      12.0107
      32     1 C    6   47.248712   24.428887   15.327729      4.00      12.0107
      33     1 C    6   40.616788   17.083063   15.307888      4.00      12.0107
      34     1 C    6   40.627352   17.096998   12.497784      4.00      12.0107
      35     1 C    6   11.882658   14.086395   10.285408      4.00      12.0107
      36     1 C    6   12.471675   12.910278   10.989469      4.00      12.0107
      37     1 C    6   11.714118   12.177485   11.915865      4.00      12.0107
      38     1 C    6   12.280446   11.094897   12.584303      4.00      12.0107
      39     1 C    6   13.619070   10.720624   12.352228      4.00      12.0107
      40     1 C    6   14.357013   11.435678   11.391013      4.00      12.0107
      41     1 C    6   13.791837   12.516974   10.718307      4.00      12.0107
      42     1 C    6   14.252571    9.623857   13.122704      4.00      12.0107
      43     1 C    6   14.251477    9.643930   14.544553      4.00      12.0107
      44     1 C    6   13.741818   10.752983   15.291618      4.00      12.0107
      45     1 C    6   22.508442    3.243623   21.740035      4.00      12.0107
      46     1 C    6   23.216416    4.348163   21.032921      4.00      12.0107
      47     1 C    6   24.213329    4.066728   20.087206      4.00      12.0107
      48     1 C    6   24.836960    5.105040   19.400445      4.00      12.0107
      49     1 C    6   24.478688    6.446685   19.638964      4.00      12.0107
      50     1 C    6   23.507917    6.719757   20.619821      4.00      12.0107
      51     1 C    6   22.880207    5.683247   21.305546      4.00      12.0107
      52     1 C    6   25.087243    7.551659   18.863907      4.00      12.0107
      53     1 C    6   25.073892    7.541135   17.442387      4.00      12.0107
      54     1 C    6   24.376239    6.541522   16.692757      4.00      12.0107
      55     1 C    6   38.297726   31.927581   21.841495      4.00      12.0107
      56     1 C    6   37.555248   30.839543   21.140183      4.00      12.0107
      57     1 C    6   36.588597   31.147998   20.170335      4.00      12.0107
      58     1 C    6   35.956132   30.131401   19.459716      4.00      12.0107
      59     1 C    6   36.274609   28.779303   19.694877      4.00      12.0107
      60     1 C    6   37.210827   28.478281   20.702384      4.00      12.0107
      61     1 C    6   37.847165   29.493930   21.412720      4.00      12.0107
      62     1 C    6   35.661336   27.692562   18.895826      4.00      12.0107
      63     1 C    6   35.697697   27.708985   17.473857      4.00      12.0107
      64     1 C    6   36.410714   28.709260   16.740335      4.00      12.0107
      65     1 C    6   25.706729    8.607725   16.725917      4.00      12.0107
      66     1 C    6   25.677388    8.628492   19.537465      4.00      12.0107
      67     1 C    6   38.329501   31.960108   10.160537      4.00      12.0107
      68     1 C    6   37.610856   30.887894   10.909741      4.00      12.0107
      69     1 C    6   36.677103   31.199252   11.910488      4.00      12.0107
      70     1 C    6   36.064068   30.183883   12.642850      4.00      12.0107
      71     1 C    6   36.369102   28.829285   12.399770      4.00      12.0107
      72     1 C    6   37.284007   28.527881   11.371827      4.00      12.0107
      73     1 C    6   37.898838   29.539852   10.640331      4.00      12.0107
      74     1 C    6   35.750622   27.732472   13.182046      4.00      12.0107
      75     1 C    6   35.743178   27.729458   14.604936      4.00      12.0107
      76     1 C    6   36.431052   28.720071   15.373875      4.00      12.0107
      77     1 C    6   46.135240   26.620718   15.281478      4.00      12.0107
      78     1 C    6   46.087336   26.579961   12.473600      4.00      12.0107
      79     1 C    6   22.463431    3.254844   10.254591      4.00      12.0107
      80     1 C    6   23.165339    4.361996   10.971529      4.00      12.0107
      81     1 C    6   24.174506    4.072509   11.903603      4.00      12.0107
      82     1 C    6   24.809989    5.100656   12.595260      4.00      12.0107
      83     1 C    6   24.455824    6.446940   12.377255      4.00      12.0107
      84     1 C    6   23.470310    6.729900   11.412972      4.00      12.0107
      85     1 C    6   22.830485    5.701946   10.721298      4.00      12.0107
      86     1 C    6   25.090215    7.541768   13.152485      4.00      12.0107
      87     1 C    6   25.076609    7.535161   14.574734      4.00      12.0107
      88     1 C    6   24.375227    6.540115   15.326351      4.00      12.0107
      89     1 C    6   26.565405   17.826540   21.776496      4.00      12.0107
      90     1 C    6   25.264890   17.889454   21.048191      4.00      12.0107
      91     1 C    6   25.010921   18.906556   20.115065      4.00      12.0107
      92     1 C    6   23.802980   18.939090   19.422374      4.00      12.0107
      93     1 C    6   22.815929   17.957937   19.642877      4.00      12.0107
      94     1 C    6   23.064893   16.963906   20.607459      4.00      12.0107
      95     1 C    6   24.274252   16.926588   21.298229      4.00      12.0107
      96     1 C    6   21.549513   17.955058   18.871646      4.00      12.0107
      97     1 C    6   21.557729   17.952148   17.449703      4.00      12.0107
      98     1 C    6   22.767968   17.844368   16.694103      4.00      12.0107
      99     1 C    6   34.412385   17.225158   21.872092      4.00      12.0107
     100     1 C    6   35.713105   17.162514   21.142985      4.00      12.0107
     101     1 C    6   35.915470   16.194501   20.146759      4.00      12.0107
     102     1 C    6   37.102021   16.170139   19.419604      4.00      12.0107
     103     1 C    6   38.118059   17.114609   19.664839      4.00      12.0107
     104     1 C    6   37.919104   18.061160   20.688283      4.00      12.0107
     105     1 C    6   36.731065   18.088908   21.415781      4.00      12.0107
     106     1 C    6   39.372464   17.117257   18.877377      4.00      12.0107
     107     1 C    6   39.365083   17.120969   17.454844      4.00      12.0107
     108     1 C    6   38.156943   17.242760   16.698485      4.00      12.0107
     109     1 C    6   20.313812   17.971545   16.737573      4.00      12.0107
     110     1 C    6   20.323752   17.945723   19.550157      4.00      12.0107
     111     1 C    6   34.434646   17.236842   10.185026      4.00      12.0107
     112     1 C    6   35.736113   17.134510   10.906577      4.00      12.0107
     113     1 C    6   35.938360   16.158254   11.893710      4.00      12.0107
     114     1 C    6   37.128773   16.126704   12.616318      4.00      12.0107
     115     1 C    6   38.146768   17.069682   12.372231      4.00      12.0107
     116     1 C    6   37.950581   18.017980   11.350448      4.00      12.0107
     117     1 C    6   36.759570   18.055107   10.631301      4.00      12.0107
     118     1 C    6   39.396831   17.084613   13.165317      4.00      12.0107
[...]
   554  O            -0.06  0.02  0.02    -0.01  0.00  0.01     0.00 -0.00 -0.00
   555  O            -0.00 -0.01 -0.00     0.01  0.02  0.01    -0.00 -0.00 -0.00
   556  O            -0.00 -0.00  0.00     0.00  0.03 -0.01     0.01  0.05 -0.02
   557  H             0.88 -0.27 -0.31     0.20 -0.05 -0.09    -0.04  0.00  0.02
   558  H            -0.15  0.01 -0.04     0.65 -0.09  0.23    -0.47  0.06 -0.17
   559  H             0.07  0.15  0.04    -0.21 -0.42 -0.13     0.04  0.08  0.00
   560  H             0.01  0.06 -0.02    -0.06 -0.43  0.17    -0.07 -0.79  0.33
   561  H            -0.01  0.01 -0.01    -0.00  0.00  0.01    -0.02  0.03 -0.00
   562  H             0.01  0.00 -0.00    -0.01  0.00 -0.00    -0.01 -0.01  0.00
   563  H            -0.00  0.00  0.00     0.01  0.00 -0.00     0.00  0.00 -0.00
   564  H             0.01 -0.00  0.00    -0.01  0.00 -0.00    -0.00  0.00  0.00



 -------------------------------------------------------------------------------
 -                                                                             -
 -                                DBCSR STATISTICS                             -
 -                                                                             -
 -------------------------------------------------------------------------------
 COUNTER                                    TOTAL       BLAS       SMM       ACC
 flops    26 x    28 x    28             86998912       0.0%    100.0%      0.0%
 flops     5 x    28 x    28            138407360       0.0%    100.0%      0.0%
 flops    13 x    28 x    28            711809280       0.0%    100.0%      0.0%
 flops    26 x    32 x    32           7272398848       0.0%    100.0%      0.0%
 flops     5 x    32 x    32          11569725440       0.0%    100.0%      0.0%
 flops    26 x    26 x    26          26917081568       0.0%    100.0%      0.0%
 flops    26 x    28 x    26          28062274240       0.0%    100.0%      0.0%
 flops    26 x    26 x     5          42484977600       0.0%    100.0%      0.0%
 flops     5 x    26 x    26          42604318640       0.0%    100.0%      0.0%
 flops    26 x    28 x     5          44416291920       0.0%    100.0%      0.0%
 flops     5 x    28 x    26          44416291920       0.0%    100.0%      0.0%
 flops     5 x    26 x     5          51671152000       0.0%    100.0%      0.0%
 flops     5 x    28 x     5          54020058400       0.0%    100.0%      0.0%
 flops    13 x    32 x    32          59501445120       0.0%    100.0%      0.0%
 flops    26 x    26 x   282          77199097248       0.0%    100.0%      0.0%
 flops    26 x    26 x   284          77746608576       0.0%    100.0%      0.0%
 flops    26 x     5 x   282         110991376080       0.0%    100.0%      0.0%
 flops    26 x     5 x   284         111778548960       0.0%    100.0%      0.0%
 flops     5 x    26 x   282         112051803240       0.0%    100.0%      0.0%
 flops     5 x    26 x   284         112846496880       0.0%    100.0%      0.0%
 flops     5 x     5 x   282         137696919900       0.0%    100.0%      0.0%
 flops     5 x     5 x   284         138673493800       0.0%    100.0%      0.0%
 flops   284 x   284 x   284         186136626304       0.0%    100.0%      0.0%
 flops   282 x   282 x   282         203670824976       0.0%    100.0%      0.0%
 flops    26 x    26 x    13         206217098880       0.0%    100.0%      0.0%
 flops    13 x    26 x    26         206830852800       0.0%    100.0%      0.0%
 flops    26 x    28 x    13         215591472096       0.0%    100.0%      0.0%
 flops    13 x    28 x    26         215591472096       0.0%    100.0%      0.0%
 flops     5 x    26 x    13         228684780220       0.0%    100.0%      0.0%
 flops    13 x    26 x     5         228684780220       0.0%    100.0%      0.0%
 flops     5 x    28 x    13         239080507120       0.0%    100.0%      0.0%
 flops    13 x    28 x     5         239080507120       0.0%    100.0%      0.0%
 flops    26 x    26 x   256         420488699904       0.0%    100.0%      0.0%
 flops   284 x   284 x   256         503355383808       0.0%    100.0%      0.0%
 flops   256 x   284 x   284         503355383808       0.0%    100.0%      0.0%
 flops   284 x   256 x   284         503355383808       0.0%    100.0%      0.0%
 flops    26 x    13 x   282         540393680736       0.0%    100.0%      0.0%
 flops    13 x    26 x   282         542231754480       0.0%    100.0%      0.0%
 flops    26 x    13 x   284         544226260032       0.0%    100.0%      0.0%
 flops    13 x    26 x   284         546077369760       0.0%    100.0%      0.0%
 flops   282 x   282 x   256         554677991424       0.0%    100.0%      0.0%
 flops   256 x   282 x   282         554677991424       0.0%    100.0%      0.0%
 flops   282 x   256 x   282         554677991424       0.0%    100.0%      0.0%
 flops     5 x    13 x   282         598198743480       0.0%    100.0%      0.0%
 flops    13 x     5 x   282         602380513020       0.0%    100.0%      0.0%
 flops     5 x    13 x   284         602441287760       0.0%    100.0%      0.0%
 flops    26 x     5 x   256         604548771840       0.0%    100.0%      0.0%
 flops    13 x     5 x   284         606652715240       0.0%    100.0%      0.0%
 flops     5 x    26 x   256         610324715520       0.0%    100.0%      0.0%
 flops     5 x     5 x   256         750008755200       0.0%    100.0%      0.0%
 flops    13 x    26 x    13         956511229440       0.0%    100.0%      0.0%
 flops    13 x    28 x    13         999993042048       0.0%    100.0%      0.0%
 flops   256 x   256 x   284        1361186390016       0.0%    100.0%      0.0%
 flops   256 x   284 x   256        1361186390016       0.0%    100.0%      0.0%
 flops   284 x   256 x   256        1361186390016       0.0%    100.0%      0.0%
 flops   256 x   256 x   282        1510612402176       0.0%    100.0%      0.0%
 flops   256 x   282 x   256        1510612402176       0.0%    100.0%      0.0%
 flops   282 x   256 x   256        1510612402176       0.0%    100.0%      0.0%
 flops   282 x   282 x  1538        1846849471200       0.0%    100.0%      0.0%
 flops   282 x   282 x  1543        1852853533200       0.0%    100.0%      0.0%
 flops   284 x   284 x  1538        1873138812800       0.0%    100.0%      0.0%
 flops   284 x   284 x  1543        1879228340800       0.0%    100.0%      0.0%
 flops    26 x    32 x    26        2083441950720       0.0%    100.0%      0.0%
 flops  1538 x   282 x   282        2490678319968       0.0%    100.0%      0.0%
 flops  1543 x   282 x   282        2498775453648       0.0%    100.0%      0.0%
 flops  1538 x   284 x   284        2526132369792       0.0%    100.0%      0.0%
 flops  1543 x   284 x   284        2534344763712       0.0%    100.0%      0.0%
 flops    13 x    13 x   282        2538379840464       0.0%    100.0%      0.0%
 flops    13 x    13 x   284        2556382534368       0.0%    100.0%      0.0%
 flops    26 x    13 x   256        2943420899328       0.0%    100.0%      0.0%
 flops    13 x    26 x   256        2953432535040       0.0%    100.0%      0.0%
 flops     5 x    13 x   256        3258274007040       0.0%    100.0%      0.0%
 flops    13 x     5 x   256        3281051304960       0.0%    100.0%      0.0%
 flops     5 x    32 x    26        3297621749760       0.0%    100.0%      0.0%
 flops    26 x    32 x     5        3297621749760       0.0%    100.0%      0.0%
 flops     5 x    32 x     5        4010639155200       0.0%    100.0%      0.0%
 flops   256 x   282 x  1538        5029717708800       0.0%    100.0%      0.0%
 flops   282 x   256 x  1538        5029717708800       0.0%    100.0%      0.0%
 flops   256 x   282 x  1543        5046069196800       0.0%    100.0%      0.0%
 flops   282 x   256 x  1543        5046069196800       0.0%    100.0%      0.0%
 flops   256 x   284 x  1538        5065389465600       0.0%    100.0%      0.0%
 flops   284 x   256 x  1538        5065389465600       0.0%    100.0%      0.0%
 flops   256 x   284 x  1543        5081856921600       0.0%    100.0%      0.0%
 flops   284 x   256 x  1543        5081856921600       0.0%    100.0%      0.0%
 flops  1538 x   282 x   256        6783123935232       0.0%    100.0%      0.0%
 flops  1538 x   256 x   282        6783123935232       0.0%    100.0%      0.0%
 flops  1543 x   256 x   282        6805175703552       0.0%    100.0%      0.0%
 flops  1543 x   282 x   256        6805175703552       0.0%    100.0%      0.0%
 flops  1538 x   284 x   256        6831231197184       0.0%    100.0%      0.0%
 flops  1538 x   256 x   284        6831231197184       0.0%    100.0%      0.0%
 flops  1543 x   256 x   284        6853439361024       0.0%    100.0%      0.0%
 flops  1543 x   284 x   256        6853439361024       0.0%    100.0%      0.0%
 flops   256 x   256 x   256        7794962989056       0.0%    100.0%      0.0%
 flops  1538 x   282 x  1538        9093296595456       0.0%    100.0%      0.0%
 flops  1538 x   282 x  1543        9122858678016       0.0%    100.0%      0.0%
 flops  1543 x   282 x  1538        9122858678016       0.0%    100.0%      0.0%
 flops  1543 x   282 x  1543        9152516866176       0.0%    100.0%      0.0%
 flops  1538 x   284 x  1538        9157788060672       0.0%    100.0%      0.0%
 flops  1538 x   284 x  1543        9187559803392       0.0%    100.0%      0.0%
 flops  1543 x   284 x  1538        9187559803392       0.0%    100.0%      0.0%
 flops  1543 x   284 x  1543        9217428333312       0.0%    100.0%      0.0%
 flops    13 x    13 x   256       13826068918272       0.0%    100.0%      0.0%
 flops    13 x    32 x    26       16006269247488       0.0%    100.0%      0.0%
 flops    26 x    32 x    13       16006269247488       0.0%    100.0%      0.0%
 flops     5 x    32 x    13       17750177802240       0.0%    100.0%      0.0%
 flops    13 x    32 x     5       17750177802240       0.0%    100.0%      0.0%
 flops   256 x   256 x  1538       27395909222400       0.0%    100.0%      0.0%
 flops   256 x   256 x  1543       27484972646400       0.0%    100.0%      0.0%
 flops  1538 x   256 x   256       36946377179136       0.0%    100.0%      0.0%
 flops  1543 x   256 x   256       37066488938496       0.0%    100.0%      0.0%
 flops  1538 x   256 x  1538       49529445285888       0.0%    100.0%      0.0%
 flops  1543 x   256 x  1538       49690464288768       0.0%    100.0%      0.0%
 flops  1538 x   256 x  1543       49690464288768       0.0%    100.0%      0.0%
 flops  1543 x   256 x  1543       49852006760448       0.0%    100.0%      0.0%
 flops    13 x    32 x    13       74243000991744       0.0%    100.0%      0.0%
 flops inhomo. stacks                           0       0.0%      0.0%      0.0%
 flops total                       731.165597E+12       0.0%    100.0%      0.0%
 flops max/rank                     49.591702E+12       0.0%    100.0%      0.0%
 matmuls inhomo. stacks                         0       0.0%      0.0%      0.0%
 matmuls total                        21487407098       0.0%    100.0%      0.0%
 number of processed stacks              28587212       0.0%    100.0%      0.0%
 average stack size                                     0.0     751.6       0.0
 marketing flops                     1.316991E+15
 -------------------------------------------------------------------------------
 # multiplications                          39889
 max memory usage/rank               2.236432E+09
 # max total images/rank                        1
 # max 3D layers                                1
 # MPI messages exchanged                 3829344
 MPI messages size (bytes):
  total size                        12.143760E+12
  min size                           0.000000E+00
  max size                          19.046792E+06
  average size                       3.171238E+06
 MPI breakdown and total messages size (bytes):
             size <=      128               25608                        0
       128 < size <=     8192                   0                        0
      8192 < size <=    32768                   0                        0
     32768 < size <=   131072                2328                155966688
    131072 < size <=  4194304             3323760            7231593301536
   4194304 < size <= 16777216              314064            1809904918320
  16777216 < size                          163584            3105662197248
 -------------------------------------------------------------------------------
 -                                                                             -
 -                      DBCSR MESSAGE PASSING PERFORMANCE                      -
 -                                                                             -
 -------------------------------------------------------------------------------
 ROUTINE             CALLS      AVE VOLUME [Bytes]
 MP_Group             4282
 MP_Bcast              116                     12.
 MP_Allreduce       199174                     37.
 MP_Alltoall        175579                 660139.
 MP_Wait           1914672
 MP_ISend           637448                1239280.
 MP_IRecv           637448                1228511.
 MP_Memory         1544492
 -------------------------------------------------------------------------------

 MEMORY| Estimated peak process memory [MiB]                                2133

 -------------------------------------------------------------------------------
 ----                             MULTIGRID INFO                            ----
 -------------------------------------------------------------------------------
 count for grid        1:        1657680          cutoff [a.u.]          180.00
 count for grid        2:         393520          cutoff [a.u.]           60.00
 count for grid        3:         224320          cutoff [a.u.]           20.00
 count for grid        4:          22240          cutoff [a.u.]            6.67
 count for grid        5:            640          cutoff [a.u.]            2.22
 total gridlevel count  :        2298400

 -------------------------------------------------------------------------------
 -                                                                             -
 -                         MESSAGE PASSING PERFORMANCE                         -
 -                                                                             -
 -------------------------------------------------------------------------------

 ROUTINE             CALLS      AVE VOLUME [Bytes]
 MP_Group                6
 MP_Bcast             1235                6812533.
 MP_Allreduce           91                  18149.
 MP_Sync                 5
 -------------------------------------------------------------------------------


 -------------------------------------------------------------------------------
 -                                                                             -
 -                           R E F E R E N C E S                               -
 -                                                                             -
 -------------------------------------------------------------------------------
 
 CP2K version 7.1, the CP2K developers group (2019).
 CP2K is freely available from https://www.cp2k.org/ .

 Schuett, Ole; Messmer, Peter; Hutter, Juerg; VandeVondele, Joost. 
 Electronic Structure Calculations on Graphics Processing Units, John
 Wiley & Sons, Ltd, 173-190 (2016). 
 GPU-Accelerated Sparse Matrix-Matrix Multiplication for
 Linear Scaling Density Functional Theory.
 https://dx.doi.org/10.1002/9781118670712.ch8

 Borstnik, U; VandeVondele, J; Weber, V; Hutter, J. 
 PARALLEL COMPUTING, 40 (5-6), 47-58 (2014). 
 Sparse matrix multiplication: The distributed block-compressed sparse
 row library.
 https://dx.doi.org/10.1016/j.parco.2014.03.012

 Hutter, J; Iannuzzi, M; Schiffmann, F; VandeVondele, J. 
 WIREs Comput Mol Sci., 4 (1), 15-25 (2014). 
 CP2K: atomistic simulations of condensed matter systems.
 https://dx.doi.org/10.1002/wcms.1159

 Grimme, S; Ehrlich, S; Goerigk, L. 
 JOURNAL OF COMPUTATIONAL CHEMISTRY, 32, 1456 (2011). 
 Effect of the damping function in dispersion corrected density functional theory.
 https://dx.doi.org/10.1002/jcc.21759

 Grimme, S; Antony, J; Ehrlich, S; Krieg, H. 
 JOURNAL OF CHEMICAL PHYSICS, 132 (15), 154104 (2010). 
 A consistent and accurate ab initio parametrization of density
 functional dispersion correction (DFT-D) for the 94 elements H-Pu.
 https://dx.doi.org/10.1063/1.3382344

 VandeVondele, J; Hutter, J. 
 JOURNAL OF CHEMICAL PHYSICS, 127 (11), 114105 (2007). 
 Gaussian basis sets for accurate calculations on molecular systems in
 gas and condensed phases.
 https://dx.doi.org/10.1063/1.2770708

 Krack, M. 
 THEORETICAL CHEMISTRY ACCOUNTS, 114 (1-3), 145-152 (2005). 
 Pseudopotentials for H to Kr optimized for gradient-corrected
 exchange-correlation functionals.
 https://dx.doi.org/10.1007/s00214-005-0655-y

 VandeVondele, J; Krack, M; Mohamed, F; Parrinello, M; Chassaing, T;
 Hutter, J. COMPUTER PHYSICS COMMUNICATIONS, 167 (2), 103-128 (2005). 
 QUICKSTEP: Fast and accurate density functional calculations using a
 mixed Gaussian and plane waves approach.
 https://dx.doi.org/10.1016/j.cpc.2004.12.014

 Frigo, M; Johnson, SG. 
 PROCEEDINGS OF THE IEEE, 93 (2), 216-231 (2005). 
 The design and implementation of FFTW3.
 https://dx.doi.org/10.1109/JPROC.2004.840301

 Kolafa, J. 
 JOURNAL OF COMPUTATIONAL CHEMISTRY, 25 (3), 335-342 (2004). 
 Time-reversible always stable predictor-corrector method for molecular dynamics of polarizable molecules.
 https://dx.doi.org/10.1002/jcc.10385

 VandeVondele, J; Hutter, J. 
 JOURNAL OF CHEMICAL PHYSICS, 118 (10), 4365-4369 (2003). 
 An efficient orbital transformation method for electronic structure
 calculations.
 https://dx.doi.org/10.1063/1.1543154

 Hartwigsen, C; Goedecker, S; Hutter, J. 
 PHYSICAL REVIEW B, 58 (7), 3641-3662 (1998). 
 Relativistic separable dual-space Gaussian pseudopotentials from H to Rn.
 https://dx.doi.org/10.1103/PhysRevB.58.3641

 Lippert, G; Hutter, J; Parrinello, M. 
 MOLECULAR PHYSICS, 92 (3), 477-487 (1997). 
 A hybrid Gaussian and plane wave density functional scheme.
 https://dx.doi.org/10.1080/002689797170220

 Perdew, JP; Burke, K; Ernzerhof, M. 
 PHYSICAL REVIEW LETTERS, 77 (18), 3865-3868 (1996). 
 Generalized gradient approximation made simple.
 https://dx.doi.org/10.1103/PhysRevLett.77.3865

 Goedecker, S; Teter, M; Hutter, J. 
 PHYSICAL REVIEW B, 54 (3), 1703-1710 (1996). 
 Separable dual-space Gaussian pseudopotentials.
 https://dx.doi.org/10.1103/PhysRevB.54.1703


 -------------------------------------------------------------------------------
 -                                                                             -
 -                                T I M I N G                                  -
 -                                                                             -
 -------------------------------------------------------------------------------
 SUBROUTINE                       CALLS  ASD         SELF TIME        TOTAL TIME
                                MAXIMUM       AVERAGE  MAXIMUM  AVERAGE  MAXIMUM
 CP2K                                 1  1.0     0.01     0.01 52351.65 52351.80
 vb_anal                              1  2.0 52347.31 52347.49 52349.48 52349.64
 -------------------------------------------------------------------------------

 The number of warnings for this run is : 0
 
 -------------------------------------------------------------------------------
  **** **** ******  **  PROGRAM ENDED AT                 2021-11-21 12:40:56.552
 ***** ** ***  *** **   PROGRAM RAN ON             node1476.palmetto.clemson.edu
 **    ****   ******    PROGRAM RAN BY                                   svicchi
 ***** **    ** ** **   PROGRAM PROCESS ID                               2332903
  **** **  *******  **  PROGRAM STOPPED IN  /scratch2/svicchi/CP2K-4052782.pbs02
