     570
 i =      149, E =     -4745.5827913653
  C        11.8587047849       14.0534468583        21.731344604538
  C        12.4561396705       12.8905234741        21.013036416638
  C        11.7044216586       12.1715865008        20.071391607938
  C        12.2807635057       11.1093516311        19.379072369138
  C        13.6213480884       10.7395259087        19.606756187038
  C        14.3545655633       11.4431388358        20.580160622238
  C        13.7816969556       12.5081234241        21.271677512638
  C        14.2607700161        9.6487839079        18.833368301238
  C        14.2558215079        9.6565527754        17.411664517238
  C        13.7426860048       10.7586784223        16.657746786038
  C        49.1266856790       21.2332999731        21.869574515638
  C        48.5498203095       22.4012274565        21.142510995538
  C        49.2997546001       23.0683509342        20.161314527338
  C        48.7328130568       24.1074527873        19.428072172338
  C        47.4023570660       24.5092549196        19.656867024238
  C        46.6715238696       23.8606145477        20.670621110238
  C        47.2339832681       22.8157351473        21.400005615938
  C        46.7720822675       25.5869065764        18.859573313038
  C        46.7609530055       25.5572107948        17.437813799438
  C        47.2608639046       24.4421056821        16.694319863238
  C        14.8596324404        8.5701439584        16.698397761238
  C        14.8916952455        8.5969157311        19.510014968438
  C        49.1130978324       21.2033977354       10.1453351678
  C        48.5276481542       22.3647774261       10.8724756576
  C        49.2667781239       23.0253230655       11.8655707339
  C        48.6904390296       24.0598659946       12.5970466901
  C        47.3601128656       24.4568121282       12.3586291732
  C        46.6398303956       23.8121084448       11.3348811417
  C        47.2133907461       22.7762101874       10.6030831236
  C        46.7216032673       25.5317370975       13.1496671652
  C        46.7331894374       25.5280209570       14.5713746825
  C        47.2485927684       24.4287973175       15.3277664205
  C        40.6157346077       17.0919650461       15.3115964742
  C        40.6301903685       17.1004195139       12.5016547933
  C        11.8828819238       14.0864048832       10.2855368251
  C        12.4720006662       12.9105085498       10.9896648336
  C        11.7144336007       12.1774370517       11.9158550458
  C        12.2809069444       11.0949188613       12.5842479030
  C        13.6196642526       10.7209680954       12.3523477860
  C        14.3576655902       11.4363788368       11.3914445763
  C        13.7923547288       12.5176101267       10.7187544152
  C        14.2531607766        9.6241727733       13.1227838068
  C        14.2518005610        9.6440997009       14.5446287105
  C        13.7420459211       10.7530991878       15.2917022319
  C        22.5124314522        3.2453393911        21.741869222138
  C        23.2269371734        4.3505974087        21.041444384838
  C        24.2237235124        4.0705494375        20.094803978938
  C        24.8510414762        5.1097234323        19.412168675738
  C        24.4978129761        6.4522057793        19.654968533338
  C        23.5291505116        6.7237166965        20.638665408038
  C        22.8972850306        5.6863805129        21.319956222438
  C        25.1045351928        7.5583713536        18.878492759638
  C        25.0804367763        7.5496788553        17.456731537438
  C        24.3795391698        6.5496487357        16.710511573638
  C        38.2979613256       31.9278428182        21.841912701938
  C        37.5556942521       30.8391189224        21.140736584138
  C        36.5892961279       31.1467018611        20.170524121138
  C        35.9579208464       30.1293534940        19.459912184138
  C        36.2774797004       28.7777720793        19.695973190838
  C        37.2132362313       28.4775330305        20.703989102538
  C        37.8485383292       29.4939605844        21.414084554938
  C        35.6666549286       27.6901974433        18.896291271038
  C        35.7074068641       27.7056377663        17.474535770538
  C        36.4208845522       28.7064386185        16.742110933838
  C        25.7050716262        8.6187011106        16.736337062738
  C        25.7002799940        8.6348044650        19.548170423138
  C        38.3307782500       31.9611295409       10.1604126831
  C        37.6142035421       30.8883326346       10.9106691902
  C        36.6811108627       31.1988470902       11.9120036040
  C        36.0706257648       30.1826149474       12.6451742148
  C        36.3782037828       28.8288949018       12.4014986166
  C        37.2926835654       28.5282256767       11.3731912421
  C        37.9048867836       29.5410594448       10.6410476785
  C        35.7620032404       27.7310930956       13.1833308981
  C        35.7557729227       27.7268428249       14.6060258912
  C        36.4425729118       28.7176767550       15.3757005588
  C        46.1351371584       26.6206387919       15.2815097698
  C        46.0877374903       26.5801544565       12.4736183430
  C        22.4621611473        3.2559379724       10.2571767563
  C        23.1589375853        4.3636497864       10.9783689091
  C        24.1627693835        4.0760335554       11.9169908061
  C        24.7936726620        5.1050958264       12.6118019746
  C        24.4409626426        6.4515623844       12.3909397653
  C        23.4603584995        6.7323698155       11.4206055201
  C        22.8248997536        5.7036137123       10.7260442614
  C        25.0737545791        7.5487236552       13.1648186353
  C        25.0658091491        7.5436222774       14.5875715141
  C        24.3705203908        6.5478751366       15.3438662054
  C        26.5646280673       17.8291314988        21.775765823138
  C        25.2641792453       17.8899828262        21.048729238338
  C        25.0114482657       18.9011123384        20.108801999538
  C        23.8025856812       18.9309329756        19.417731832338
  C        22.8139832994       17.9532846974        19.646696619238
  C        23.0619901316       16.9654467286        20.617871313538
  C        24.2723400679       16.9301933757        21.306629876938
  C        21.5475551817       17.9475336884        18.875743508838
  C        21.5567511997       17.9386477654        17.453931802738
  C        22.7670605346       17.8179369265        16.700894283238
  C        34.4200183620       17.2216625703        21.902212193138
  C        35.7100848206       17.1614892305        21.153973080938
  C        35.9116569845       16.1919074491        20.158991588538
  C        37.0946464757       16.1711441344        19.424591068238
  C        38.1098116791       17.1183587590        19.664245039438
  C        37.9101070129       18.0686133191        20.684040314538
  C        36.7250066291       18.0947007680        21.415851192138
  C        39.3658625472       17.1205280579        18.878702955438
  C        39.3607916754       17.1266057081        17.456553976038
  C        38.1537946184       17.2471257764        16.698320350638
  C        20.3139141786       17.9634525662        16.740079875338
  C        20.3212244576       17.9426978062        19.552929587838
  C        34.4352796457       17.2371951643       10.1883028639
  C        35.7375328989       17.1342744228       10.9096353732
  C        35.9391339614       16.1601271643       11.8989045277
  C        37.1303150838       16.1289572151       12.6205414566
  C        38.1490732366       17.0704227402       12.3736935717
  C        37.9534757973       18.0163379067       11.3496224718
  C        36.7620191560       18.0527785464       10.6312446609
  C        39.3986696458       17.0879384576       13.1674104437
  C        39.3776433488       17.1098725300       14.5889761152
  C        38.1615423375       17.2369682320       15.3318195016
  C        35.1157967466       26.6499153970       15.3057324415
  C        35.1776459497       26.6592739647       12.4959255298
  C        26.5929520772       17.7978788471       10.3669893986
  C        25.2747387409       17.8626158424       11.0603254658
  C        25.0066862650       18.8820421286       11.9861183850
  C        23.7814359883       18.9244493688       12.6446901195
  C        22.7968773750       17.9464986394       12.4016011298
  C        23.0582089758       16.9534284071       11.4404740039
  C        24.2829709543       16.9102375535       10.7784101659
  C        21.5291945981       17.9388196144       13.1665135332
  C        21.5468243796       17.9329565525       14.5878421108
  C        22.7618821358       17.8147967750       15.3347714681
  C        14.0470301148       17.8328821181       10.2839220159
  C        15.3543722107       17.9004031721       10.9999434916
  C        15.6136074962       18.9175314666       11.9316540958
  C        16.8246666602       18.9477197368       12.6195661415
  C        17.8085783765       17.9633627568       12.3977103372
  C        17.5552519991       16.9717220091       11.4315622220
  C        16.3438693493       16.9373964196       10.7444677687
  C        19.0746780665       17.9511240315       13.1695532665
  C        19.0654784630       17.9513834991       14.5915264412
  C        17.8538044532       17.8556201024       15.3458372002
  C        46.8023204558       17.2168812438       10.1579579710
  C        45.5092536953       17.1478881445       10.9006391940
  C        45.3060781729       16.1672537445       11.8842154307
  C        44.1223533327       16.1396323913       12.6173813258
  C        43.1099625734       17.0923645403       12.3898052832
  C        43.3101841460       18.0523086123       11.3790633540
  C        44.4949525900       18.0839578156       10.6468829316
  C        41.8555520447       17.0961360741       13.1789158647
  C        41.8620375293       17.1028035512       14.6014475020
  C        43.0710055364       17.2031848810       15.3595788458
  C        20.3083272663       17.9598940349       15.3059454396
  C        20.3013561405       17.9271918276       12.4931022427
  C        46.7830719120       17.2323504934        21.876448153238
  C        45.4791919718       17.1281102853        21.158235809238
  C        45.2580148219       16.1281821071        20.198759222938
  C        44.0691747913       16.1006259334        19.472917059738
  C        43.0699883527       17.0700786640        19.688069854538
  C        43.2821499024       18.0408557669        20.685087220838
  C        44.4720358277       18.0745204870        21.406287213038
  C        41.8216426362       17.0900507505        18.891667499838
  C        41.8447172825       17.0988178785        17.469944261238
  C        43.0629463286       17.1980451953        16.726463040238
  C        46.1529171011       26.6370776933        16.716062422438
  C        46.1622597628       26.6561036087        19.525693186138
  C        14.0403456441       17.8294831056        21.696238310038
  C        15.3542352552       17.9017868532        20.996726056038
  C        15.6229031890       18.9270094834        20.077788583238
  C        16.8468869477       18.9679797423        19.415217409838
  C        17.8269203063       17.9826426047        19.647018390938
  C        17.5637279873       16.9832379968        20.601073037938
  C        16.3420670048       16.9420809119        21.267803936738
  C        19.0933461345       17.9676523352        18.879839353138
  C        19.0753728909       17.9592625647        17.458722929338
  C        17.8587004714       17.8590422155        16.712003266438
  C        28.8061498512       14.0809982419       10.3632271168
  C        28.2039100366       12.9071148732       11.0554690842
  C        28.9336901816       12.1617635248       11.9934498288
  C        28.3350743138       11.0917294301       12.6542672517
  C        26.9946673300       10.7396288465       12.3969671082
  C        26.2874182760       11.4631411533       11.4198741643
  C        26.8817331414       12.5359081844       10.7611040885
  C        26.3270472082        9.6607266091       13.1614945884
  C        26.3145466644        9.6884197385       14.5825273971
  C        26.8169151618       10.8026477690       15.3267839564
  C        32.1794925742       21.2415367622       10.1443293465
  C        32.7751918708       22.4068153794       10.8650509144
  C        32.0209272500       23.0941992568       11.8290169168
  C        32.5896397454       24.1333514284       12.5595143826
  C        33.9288509035       24.5151692404       12.3471735769
  C        34.6658070915       23.8466130659       11.3514149017
  C        34.0994360810       22.8015261775       10.6230188548
  C        34.5535617344       25.5916178373       13.1509139250
  C        34.5300008746       25.5661192638       14.5727147529
  C        34.0125012542       24.4528473880       15.3075965775
  C        25.7028315499        8.6115426021       15.3016870735
  C        25.6896163002        8.6103261652       12.4883519688
  C        32.0721643248       21.2005287376        21.868385704538
  C        32.6425472058       22.3618551398        21.121407724538
  C        31.9081372624       23.0089055656        20.115737723638
  C        32.4797697848       24.0505842011        19.386453897938
  C        33.7994438117       24.4744151689        19.641956978338
  C        34.5147516123       23.8396735068        20.675779526938
  C        33.9483690146       22.7954012613        21.401272279838
  C        34.4403708007       25.5605463777        18.862865310738
  C        34.4711680745       25.5506896667        17.440651073338
  C        33.9831992463       24.4457733591        16.673942902538
  C        40.6067394989       17.0954305364        16.746734632438
  C        40.5905330743       17.1181250880        19.557319715038
  C        28.7419604820       14.0681730241        21.808741716538
  C        28.1295268952       12.9250752630        21.068358106338
  C        28.8648741021       12.2328706563        20.093853717438
  C        28.2844608099       11.1780061614        19.393608706238
  C        26.9531254048       10.7883871612        19.643136237038
  C        26.2345918532       11.4693416994        20.643696150338
  C        26.8128261353       12.5254252437        21.345114976138
  C        26.3129208913        9.6970659627        18.870236238538
  C        26.3067019918        9.7082683131        17.448179783538
  C        26.8095597511       10.8141539788        16.692703205638
  C        18.1354148445        3.1810028260       10.3171152566
  C        17.4060054569        4.2781310326       11.0156986116
  C        16.3900242978        3.9996468248       11.9429070542
  C        15.7421611661        5.0395371284       12.6063929113
  C        16.0941824698        6.3832904396       12.3670277344
  C        17.0838873436        6.6529457499       11.4036315807
  C        17.7331280679        5.6156921427       10.7385733245
  C        15.4696493377        7.4908729848       13.1300904372
  C        15.4847716531        7.4900877275       14.5518095173
  C        16.1863334984        6.4964761103       15.3049744465
  C        42.9457632598       31.8596010015       10.0728361796
  C        43.6461210927       30.7718553983       10.8167947447
  C        44.5913696621       31.0931844995       11.8031222451
  C        45.1970633997       30.0876293776       12.5507949880
  C        44.8708900492       28.7345472141       12.3356940764
  C        43.9453999084       28.4202051074       11.3221711500
  C        43.3366099477       29.4253560675       10.5741197708
  C        45.4884127642       27.6552204083       13.1388853096
  C        45.4924552154       27.6807788756       14.5605827718
  C        44.8053553071       28.6888143656       15.3072144147
  C        14.8557719506        8.5625629734       15.2641722474
  C        14.8744516277        8.5626792305       12.4514962411
  C        42.9464381427       31.9617333454        21.798789942738
  C        43.6916950356       30.8855366106        21.085338887238
  C        44.6560999057       31.1914301435        20.112856736238
  C        45.2775815524       30.1718207852        19.395114182438
  C        44.9539556139       28.8215035372        19.632925459938
  C        44.0207115367       28.5238650928        20.643932921938
  C        43.3924948291       29.5406468875        21.356131585238
  C        45.5628745656       27.7240565793        18.847652178138
  C        45.5330078495       27.7172704965        17.426356395138
  C        44.8266521686       28.7074728736        16.673399250838
  C        35.0883572080       26.6407111594        16.740993538638
  C        35.0500302289       26.6177520977        19.551204591638
  C        18.1486169819        3.2469756054        21.696362026038
  C        17.4300269655        4.3437336026        20.987047553138
  C        16.4144919930        4.0524355936        20.063827361638
  C        15.7661182438        5.0830386773        19.388470866738
  C        16.1210311912        6.4282721547        19.610853828538
  C        17.1128269833        6.7116879576        20.567666078238
  C        17.7605701818        5.6828063182        21.247422542538
  C        15.4903627101        7.5238973981        18.838420930438
  C        15.4959483712        7.5070963020        17.417283419438
  C        16.1926327780        6.5053458318        16.670580767338
  H        10.6722958408       12.4657194683        19.894380133638
  H        11.6944604794       10.5508503019        18.652564045738
  H        15.3916402835       11.1686398689        20.761799359538
  H        14.3512492956       13.0713157272        22.007071950638
  H        13.3759253009       11.6309238343        17.191028772538
  H        50.3224050355       22.7481838596        19.976468930338
  H        49.3192484283       24.6225829172        18.670363207938
  H        45.6421369142       24.1616240009        20.853990648838
  H        46.6631147424       22.2906793592        22.162337971538
  H        47.6294698477       23.5757569281        17.236004351738
  H        14.8723748064        8.5883438404        20.598328318138
  H        50.2867597061       22.7023360512       12.0606013707
  H        49.2687892530       24.5751978955       13.3606656956
  H        45.6105236593       24.1095621638       11.1456204433
  H        46.6526803076       22.2541956367        9.8313364132
  H        47.6074505667       23.5517078385       14.7968735160
  H        40.6356918974       17.0617089263       11.4139856778
  H        48.6870752836       14.0952046226        23.789808077938
  H        10.6810224055       12.4666600206       12.0933360563
  H        11.6890994020       10.5246220810       13.2970056607
  H        15.3930866764       11.1584471750       11.2055117686
  H        14.3648267883       13.0868883736        9.9902551059
  H        13.3754096960       11.6217981392       14.7530768831
  H        47.9301554628       14.2185567828        9.7109099401
  H        47.7799343094       14.3740461701        22.485160634838
  H        49.0829198000       18.5520714850       10.8671845570
  H        10.4159569913       14.1343193423        7.9987791779
  H        24.4849497350        3.0319790647        19.904221052138
  H        25.6241657272        4.8912749588        18.678691424338
  H        23.2483621808        7.7567202971        20.833363309238
  H        22.1275359282        5.8879299074        22.060931900538
  H        23.8171225813        5.7936877750        17.250730219138
  H        36.3578232768       32.1910282590        19.974692602538
  H        35.2096231440       30.3732780081        18.708960930038
  H        37.4683910405       27.4371720182        20.894969223538
  H        38.5965097560       29.2682599414        22.170574128838
  H        36.9823657612       29.4558070523        17.292384716038
  H        25.7337485306        8.6196231792        20.636078751738
  H        36.4533670153       32.2433685885       12.1124442232
  H        35.3403298319       30.4308030714       13.4122155794
  H        37.5445669452       27.4878533081       11.1783218969
  H        38.6313950614       29.3123027832        9.8650714875
  H        37.0215493192       29.4753146791       14.8553660629
  H        46.1093423092       26.5876626826       11.3855867952
  H        44.6683779613       35.1162881259        23.803712889838
  H        24.4392996757        3.0373890633       12.0834972933
  H        25.5754772028        4.8749902295       13.3325055351
  H        23.1765272419        7.7673449506       11.2409700233
  H        22.0520934165        5.9179667759        9.9914501754
  H        23.8005301995        5.7912422856       14.8125485597
  H        44.9539451689       34.3904515433        9.6952071722
  H        44.9018802317       34.2068703619        22.480430203638
  H        40.6666325003       33.2095859891       10.8533603251
  H        23.1503711054        1.9582995829        8.0048206988
  H        25.7717373559       19.6592721400        19.935703120538
  H        23.6088234206       19.7188748656        18.693152195438
  H        22.3080115372       16.2024996616        20.800303948638
  H        24.4785597409       16.1543064531        22.040069846738
  H        23.7055040786       17.6924245688        17.233438134538
  H        35.1269345139       15.4629423675        19.970784214838
  H        37.2487085693       15.4102946271        18.662526639338
  H        38.6842631781       18.8091841062        20.874252553038
  H        36.5565009399       18.8427919550        22.187109887338
  H        37.2151837089       17.3786671024        17.228859664538
  H        20.3229154573       17.9707932290        20.641106366338
  H        35.1444576901       15.4456195882       12.1014407214
  H        37.2837614136       15.3703998952       13.3850027866
  H        38.7325324970       18.7497145186       11.1519722125
  H        36.5915395885       18.8023735379        9.8622840727
  H        37.2289231775       17.3602646140       14.7888095875
  H        35.1620505887       26.6832085407       11.4079252536
  H        28.5072844719       21.0815331147        23.966144922738
  H        25.7692607071       19.6348518168       12.1712035384
  H        23.5727352281       19.7177867438       13.3591113351
  H        22.3049497506       16.1923198699       11.2476861959
  H        24.5010647158       16.1324786457       10.0505457374
  H        23.6965906141       17.6873067360       14.7968748707
  H        28.9950609435       21.7150587270        9.7746873160
  H        29.1506441281       21.7409383366        22.602514752638
  H        32.1172703674       18.5800062870       10.9688935828
  H        27.3454525870       19.0681301341        8.0839491169
  H        14.8550787574       19.6782682188       12.1017854156
  H        17.0232111867       19.7408524222       13.3372389967
  H        18.3060637772       16.2049040376       11.2521489085
  H        16.1347859428       16.1588080737       10.0147351490
  H        16.9136667090       17.7456888226       14.8133135922
  H        46.0932870255       15.4398043693       12.0679052086
  H        43.9676812599       15.3711771352       13.3716475789
  H        42.5375752016       18.7966719917       11.1977427867
  H        44.6640753202       18.8401446042        9.8837448356
  H        44.0123819626       17.3154825714       14.8293086894
  H        20.3007392768       17.9517648742       11.4048248048
  H        46.0333851324       15.3858764084        20.023210097438
  H        43.9022464947       15.3234573315        18.730218004338
  H        42.5174173641       18.7950636356        20.858834386538
  H        44.6549717605       18.8431949093        22.153181842038
  H        43.9982065509       17.3050375506        17.268373627238
  H        46.1993049343       26.6827619025        20.613129053438
  H        52.7412796530       21.0626400074        8.1946170575
  H        14.8632841051       19.6853266506        19.901635059938
  H        17.0578186141       19.7663361650        18.706985204538
  H        18.3134743961       16.2163243740        20.784228270638
  H        16.1218215017       16.1599628035        21.990276546638
  H        16.9221869127       17.7516783828        17.251081217038
  H        52.3224224080       21.6736107618        22.284460070038
  H        52.0134605997       21.7024676556        9.4954236564
  H        49.0673275729       18.6076993557        21.193753151738
  H        13.2474995812       19.0162543100        23.965835926938
  H        29.9682768204       12.4330738637       12.1912011784
  H        28.9013143798       10.5153489540       13.3826563303
  H        25.2518546102       11.2007571713       11.2134781679
  H        26.3319018313       13.1170214289       10.0249257214
  H        27.1801573361       11.6721012963       14.7869267567
  H        30.9904173417       22.7903157295       11.9974504718
  H        31.9988837036       24.6658291869       13.3017716463
  H        35.7021708672       24.1311854477       11.1811175415
  H        34.6747750329       22.2610672591        9.8747672796
  H        33.6638746101       23.5831182907       14.7581539328
  H        25.7186401391        8.5911841751       11.4003128880
  H        30.8933181217       22.6744373872        19.911138669538
  H        31.9020919798       24.5534899857        18.613875704138
  H        35.5361772039       24.1536870538        20.880591563938
  H        34.5076881252       22.2856026160        22.182083974938
  H        33.6118453944       23.5702909879        17.199033864838
  H        40.5844995302       17.0850239098        20.645190547338
  H        32.5093326139       14.1517487018        8.2496175308
  H        29.8935141800       12.5330770819        19.906450575138
  H        28.8624148020       10.6371985731        18.647401151438
  H        25.2040001982       11.1822075234        20.842071527138
  H        26.2544822527       13.0669859616        22.105007595538
  H        27.1651351064       11.6934346508        17.222315557538
  H        33.3027393503       14.2229966165        22.444941146638
  H        33.4050777463       14.4077412499        9.6017421897
  H        32.0927249371       18.5335622403        21.164508469738
  H        30.2135977093       14.1859627989        8.0790994464
  H        16.1179039746        2.9631215201       12.1290815819
  H        14.9525301179        4.8200865214       13.3218292871
  H        17.3665535023        7.6858245743       11.2108748932
  H        18.5154703302        5.8185021792       10.0110942060
  H        16.7529843875        5.7392077490       14.7714738952
  H        44.8274642846       32.1402850944       11.9774737421
  H        45.9367528700       30.3414194074       13.3069009270
  H        43.6830280297       27.3781005809       11.1517756877
  H        42.6003416384       29.1900459260        9.8091094677
  H        44.2300728080       29.4366351234       14.7689083244
  H        14.8509299218        8.5460339573       11.3632699021
  H        44.8995367794       32.2341157741        19.921279787738
  H        46.0243578993       30.4130592002        18.641750604738
  H        43.7639528100       27.4841243131        20.835702533438
  H        42.6461955939       29.3179028721        22.114789139438
  H        44.2682416777       29.4704299753        17.207986227038
  H        35.0004762583       26.6298947300        20.638423928938
  H        36.6054313815       35.1341250060        8.1806723916
  H        16.1432174600        3.0128710647        19.894359986138
  H        14.9735602460        4.8562018096        18.678646759238
  H        17.3967089163        7.7471213469        20.744158789238
  H        18.5438328538        5.8933524786        21.971739457638
  H        16.7642150194        5.7552079312        17.209002959938
  H        36.2791311791       34.4820876164        22.263043333538
  H        36.3816307534       34.2087703236        9.4992904445
  H        40.5794819890       33.2023523875        21.143684432338
  H        17.4713232094        1.9476321103        23.963887390938
  H        28.9978236353       19.0413116106       12.4469107405
  H        28.7310836921       18.6894004634        19.806664794138
  H        31.9477220732       16.0091386733        19.654664264538
  H        30.8319407539       15.5575626166       12.4694829199
  H        29.8809327929       16.0437228439       14.8207649193
  H        32.9368746164       17.7747564012        17.812164689438
  H        28.9809433962       15.3389261735        18.251642605838
  H        30.7556929643       19.8756755135       14.2617397474
  H        18.8545538063        0.8692040179       12.3353316412
  H        40.5281027537       35.2286812436        19.941720495338
  H        42.3244549469       34.4190557204        19.579910332338
  H        22.0877298917        0.6922291800       12.3513897320
  H        11.5967459667       18.7124399069       12.3825639210
  H        52.2649767913       18.4313921237        19.667544845338
  H        49.2551394731       16.4761822817        19.573922727938
  H        10.1497894354       15.7983737129       12.2928805918
  H        50.8501255884       17.6927535855        19.943719966538
  H        10.0457752483       17.3947503965       12.0518956920
  H        20.2162379319        0.0024787700       12.0417358163
  H        39.1838758265       36.1244948172        19.676315660538
 Ni        30.8213026259       17.8841467172        18.907128361038
 Ni        31.4140866663       16.7707551981        16.402241847938
 Ni        30.6456303993       18.8698965704        16.565444478738
 Ni        30.6052584036       17.7218517928       13.3272721923