     578
 i =      245, E =     -4812.1715637916
  C        11.8588574812       14.0536033998       13.7364490175
  C        12.4564514034       12.8907212835       13.0180129557
  C        11.7046215669       12.1714979102       12.0767087815
  C        12.2810564246       11.1093269761       11.3843451423
  C        13.6217659761       10.7399031426       11.6118113608
  C        14.3551118263       11.4438658835       12.5848312497
  C        13.7821927265       12.5088472661       13.2763203046
  C        14.2612647464        9.6491522813       10.8384955019
  C        14.2566759309        9.6570601350        9.4168003792
  C        13.7437120651       10.7592955970        8.6629182435
  C        49.1269611905       21.2331796299       13.8745661830
  C        48.5501839445       22.4012127766       13.1474962153
  C        49.3002515783       23.0685879689       12.1665835823
  C        48.7333307979       24.1077561288       11.4333930095
  C        47.4027697547       24.5093241593       11.6619696345
  C        46.6717651487       23.8604010906       12.6754054519
  C        47.2342273798       22.8154859264       13.4047428660
  C        46.7724818457       25.5870110781       10.8647050183
  C        46.7614018146       25.5574041007        9.4429414849
  C        47.2614398292       24.4423581887        8.6994458518
  C        14.8605229120        8.5706484297        8.7035740756
  C        14.8918381693        8.5971254610       11.5151838687
  C        49.1133094492       21.2034259281        2.1504862251
  C        48.5278916582       22.3648452874        2.8776668232
  C        49.2671406766       23.0255840380        3.8705300149
  C        48.6908169811       24.0601462825        4.6020058229
  C        47.3603997300       24.4568836960        4.3637860633
  C        46.6399579345       23.8119742149        3.3402908662
  C        47.2135265806       22.7760713861        2.6085071238
  C        46.7219167815       25.5318429316        5.1548069380
  C        46.7336041186       25.5282120905        6.5765127867
  C        47.2491265946       24.4290378899        7.3328951600
  C        40.6342395309       17.1165352340        7.3296469420
  C        40.6531884720       17.1549299399        4.5205929786
  C        11.8831623340       14.0866551906        2.2906109491
  C        12.4726702370       12.9109966810        2.9950620221
  C        11.7150328070       12.1773930718        3.9207313345
  C        12.2817044867       11.0949668669        4.5891406310
  C        13.6207060672       10.7217172849        4.3576766975
  C        14.3588889735       11.4377988027        3.3974485489
  C        13.7933799509       12.5189611322        2.7247903807
  C        14.2542646882        9.6248556757        5.1280011979
  C        14.2529967906        9.6447825079        6.5498371508
  C        13.7432263003       10.7538037839        7.2968728449
  C        22.5125250434        3.2446441298       13.7477348844
  C        23.2290568152        4.3496509135       13.0477900364
  C        24.2260677274        4.0676913017       12.1021362154
  C        24.8555412307        5.1057269181       11.4198012077
  C        24.5043449236        6.4485046817       11.6630378618
  C        23.5353754770        6.7221725031       12.6455658652
  C        22.9010684792        5.6857000973       13.3261248654
  C        25.1141059121        7.5527116467       10.8861635638
  C        25.0858919807        7.5437245989        9.4644650050
  C        24.3766784505        6.5482370579        8.7198850796
  C        38.3032840439       31.9297111498       13.8439757191
  C        37.5756985253       30.8394839181       13.1344757799
  C        36.6187546473       31.1413631896       12.1536571555
  C        36.0047859174       30.1194010078       11.4351278942
  C        36.3330349040       28.7710007585       11.6764904870
  C        37.2598261348       28.4766238160       12.6940873228
  C        37.8782319190       29.4972338670       13.4110789624
  C        35.7340130607       27.6780315372       10.8791219986
  C        35.7671631288       27.6930590209        9.4580079747
  C        36.4742450132       28.6949999825        8.7212123231
  C        25.7163535466        8.6080152083        8.7425251161
  C        25.7152577638        8.6268110370       11.5548100392
  C        38.3291202199       31.9626948962        2.1610170672
  C        37.6081433706       30.8898047490        2.9026897160
  C        36.6831491405       31.1985388126        3.9116689133
  C        36.0746203530       30.1797375590        4.6418187808
  C        36.3769766506       28.8274091934        4.3857719063
  C        37.2790520471       28.5287053727        3.3464077715
  C        37.8900135723       29.5439483325        2.6178397640
  C        35.7707793648       27.7278917694        5.1698632545
  C        35.7857601895       27.7188362940        6.5915981462
  C        36.4828750720       28.7075347354        7.3547113344
  C        46.1355376930       26.6208176929        7.2866490548
  C        46.0879065141       26.5801702956        4.4787576557
  C        22.4602187196        3.2549572603        2.2622986235
  C        23.1543576506        4.3629682001        2.9858631819
  C        24.1566860211        4.0748989346        3.9256217678
  C        24.7857247111        5.1038551927        4.6220144682
  C        24.4324712903        6.4498250752        4.4001795804
  C        23.4528672442        6.7313616118        3.4293545588
  C        22.8189320599        5.7024522310        2.7337817162
  C        25.0673994111        7.5460194823        5.1729478733
  C        25.0627663650        7.5399289726        6.5955429366
  C        24.3637316164        6.5477844741        7.3532808114
  C        26.6235801973       17.8638533640       13.7804768288
  C        25.3144696787       17.9050715092       13.0548303437
  C        25.0604992091       18.8928940650       12.0906557407
  C        23.8474462784       18.9129597281       11.4044908953
  C        22.8520716255       17.9474983853       11.6593756132
  C        23.1030524278       16.9818725046       12.6524370184
  C        24.3178823848       16.9572139881       13.3367917000
  C        21.5787466734       17.9319815656       10.8949752162
  C        21.5775295947       17.9068438079        9.4722960944
  C        22.7825125040       17.7810102104        8.7110941674
  C        34.4417052756       17.1936343721       13.9197826349
  C        35.7342990777       17.1437882468       13.1729114190
  C        35.9398533951       16.1704293262       12.1830823088
  C        37.1193593800       16.1553835656       11.4446329435
  C        38.1256577251       17.1121259191       11.6782609124
  C        37.9231916347       18.0667059345       12.6926767958
  C        36.7399769805       18.0874625263       13.4274081754
  C        39.3793124724       17.1182475882       10.8923707850
  C        39.3745022925       17.1265191579        9.4710165835
  C        38.1658745754       17.2320061862        8.7130398013
  C        20.3307653570       17.9252053627        8.7638553997
  C        20.3536000227       17.9376032225       11.5769789715
  C        34.4741714165       17.2449595258        2.1876934820
  C        35.7761168498       17.1696521155        2.9159143831
  C        35.9998197883       16.1649974628        3.8700808846
  C        37.1848933319       16.1418219722        4.6004117178
  C        38.1754890051       17.1218027412        4.3923008482
  C        37.9582711284       18.1009548526        3.4065144355
  C        36.7702660750       18.1293209254        2.6804161652
  C        39.4231017180       17.1344049069        5.1859153439
  C        39.3976115864       17.1348698154        6.6061508733
  C        38.1780484813       17.2345336016        7.3468038671
  C        35.1560572058       26.6391248500        7.2951254176
  C        35.1770968239       26.6596632994        4.4862526317
  C        26.5700123631       17.8269316385        2.3288905643
  C        25.2535610302       17.8717513868        3.0344849698
  C        24.9889372160       18.8757601397        3.9779385332
  C        23.7718332232       18.8993093138        4.6533263192
  C        22.7896837389       17.9190739153        4.4077417395
  C        23.0480444446       16.9405053110        3.4309123784
  C        24.2663028522       16.9147350683        2.7544475044
  C        21.5266532601       17.8993368628        5.1816847154
  C        21.5509390493       17.8892009454        6.6032359506
  C        22.7696059154       17.7728836315        7.3448046577
  C        14.0466345626       17.8286690413        2.2943337693
  C        15.3502529906       17.8849205022        3.0201237239
  C        15.6058576070       18.8858247637        3.9705289035
  C        16.8143549841       18.9053708662        4.6641493250
  C        17.8016815572       17.9269378552        4.4296640067
  C        17.5509108296       16.9507002199        3.4468320122
  C        16.3418883743       16.9263915571        2.7548216042
  C        19.0705692195       17.9086136320        5.1986327793
  C        19.0696219017       17.9051338781        6.6211145122
  C        17.8629178219       17.8069768574        7.3829051505
  C        46.8064619774       17.2196033533        2.1646705023
  C        45.5183973113       17.1603558410        2.9131842166
  C        45.3152644214       16.1859063655        3.9024074220
  C        44.1353393585       16.1702319251        4.6410759482
  C        43.1292986276       17.1289776909        4.4117913668
  C        43.3301007632       18.0835947760        3.3966211035
  C        44.5108474313       18.1032998582        2.6591001487
  C        41.8767268390       17.1393395730        5.2001975231
  C        41.8813975096       17.1361576593        6.6219334356
  C        43.0894325502       17.2351793281        7.3815295622
  C        20.3167398351       17.9151728567        7.3289072975
  C        20.2943704525       17.8889923613        4.5157453965
  C        46.7861513085       17.2307094468       13.8856497789
  C        45.4823613008       17.1242664022       13.1725048293
  C        45.2649791686       16.1282666667       12.2087029083
  C        44.0768328812       16.1028878898       11.4830740594
  C        43.0776435596       17.0701117047       11.7052590739
  C        43.2847632575       18.0347792174       12.7086352369
  C        44.4742853181       18.0669265654       13.4288976634
  C        41.8326326001       17.0940781024       10.9078725354
  C        41.8588042100       17.1120562457        9.4873783657
  C        43.0785886953       17.2212721978        8.7479046328
  C        46.1533339405       26.6372574311        8.7211957458
  C        46.1624943407       26.6561057563       11.5308335551
  C        14.0461623138       17.8320970307       13.7038344365
  C        15.3674032617       17.9069462830       13.0144883008
  C        15.6405492578       18.9208764002       12.0840949556
  C        16.8697906096       18.9578485835       11.4297292462
  C        17.8538647319       17.9801309327       11.6797447407
  C        17.5878530337       16.9959182489       12.6490991591
  C        16.3606270111       16.9582529320       13.3069173288
  C        19.1208749286       17.9536614974       10.9104117890
  C        19.0958696466       17.9267690593        9.4890151101
  C        17.8757884881       17.8166996318        8.7488800501
  C        28.8094813946       14.0915096584        2.3944587735
  C        28.1979050394       12.9136034578        3.0800081819
  C        28.9321440719       12.1588704587        4.0060693969
  C        28.3384239694       11.0791347572        4.6551050097
  C        26.9959020469       10.7328207470        4.4028105150
  C        26.2818753212       11.4688822324        3.4405575465
  C        26.8746672568       12.5474749804        2.7885320006
  C        26.3308724812        9.6516108023        5.1657037208
  C        26.3279793734        9.6741772328        6.5864595397
  C        26.8547000783       10.7777949338        7.3304986792
  C        32.1776155178       21.2429752687        2.1501118749
  C        32.7727082363       22.4116543075        2.8671090725
  C        32.0255440020       23.0897505910        3.8421752342
  C        32.5978997055       24.1278964215        4.5712609197
  C        33.9326506246       24.5155192078        4.3448256246
  C        34.6619353958       23.8568460782        3.3372540768
  C        34.0918674946       22.8131469546        2.6106353077
  C        34.5641116983       25.5889024517        5.1454427836
  C        34.5612249726       25.5575109139        6.5668219231
  C        34.0534223386       24.4415068341        7.3042276695
  C        25.7095715222        8.6028412415        7.3078855546
  C        25.6847309851        8.6054941274        4.4947577638
  C        32.1054684550       21.2280307501       13.8798473119
  C        32.7007292996       22.3762805730       13.1311678965
  C        31.9672890034       23.0382381829       12.1345875624
  C        32.5504267381       24.0657368761       11.3963157894
  C        33.8804658483       24.4618011613       11.6379786416
  C        34.5971779859       23.8126832165       12.6612681523
  C        34.0188106305       22.7791668209       13.3938690427
  C        34.5217521665       25.5431072318       10.8549768307
  C        34.5390462041       25.5342605510        9.4333717886
  C        34.0421988131       24.4307334360        8.6707354573
  C        40.6219763074       17.1084923144        8.7634681389
  C        40.6019548136       17.1175040352       11.5725317018
  C        28.7456233004       14.0725471330       13.8141130903
  C        28.1330838853       12.9298118182       13.0651608682
  C        28.8800899935       12.2251954141       12.1080445239
  C        28.3067375099       11.1639499622       11.4098777129
  C        26.9693236368       10.7820978940       11.6436121087
  C        26.2387233505       11.4782686881       12.6237853466
  C        26.8116416415       12.5388092982       13.3245948480
  C        26.3334016479        9.6846710403       10.8752589299
  C        26.3294715748        9.6906473478        9.4539831539
  C        26.8510945833       10.7854617964        8.6957668312
  C        18.1353323257        3.1810007393        2.3222369433
  C        17.4060090972        4.2782217600        3.0207446243
  C        16.3906473899        3.9998567636        3.9486710671
  C        15.7429654831        5.0398511148        4.6121707111
  C        16.0945456750        6.3836182517        4.3721595544
  C        17.0834260416        6.6531190104        3.4078514320
  C        17.7324673773        5.6157755292        2.7427713027
  C        15.4703770046        7.4913403443        5.1352533758
  C        15.4856172149        7.4905775514        6.5569680321
  C        16.1869967749        6.4968583034        7.3101703879
  C        42.9459329788       31.8594439945        2.0780066608
  C        43.6462677725       30.7718557397        2.8219728451
  C        44.5917651948       31.0931618385        3.8080939999
  C        45.1974310822       30.0876084016        4.5557632244
  C        44.8710389353       28.7345356578        4.3408534898
  C        43.9452676528       28.4202180541        3.3275809597
  C        43.3364696143       29.4253627628        2.5795435262
  C        45.4886265855       27.6552484346        5.1440410077
  C        45.4927682329       27.6809022761        6.5657277150
  C        44.8055905072       28.6888854366        7.3123543782
  C        14.8568067777        8.5631448856        7.2693547254
  C        14.8752944598        8.5632551051        4.4566833430
  C        42.9464914531       31.9615013293       13.8038593004
  C        43.6917253226       30.8854548208       13.0904236714
  C        44.6562393316       31.1913476671       12.1180240762
  C        45.2777603067       30.1717562716       11.4003291099
  C        44.9540405859       28.8214247570       11.6380292355
  C        44.0206637686       28.5237743123       12.6489157075
  C        43.3923868048       29.5405437619       13.3610595037
  C        45.5630696904       27.7240372744       10.8527840684
  C        45.5333226743       27.7173812335        9.4314923378
  C        44.8268660753       28.7075179547        8.6785399196
  C        35.1458684478       26.6265342920        8.7296594093
  C        35.1298964174       26.6021592996       11.5392540556
  C        18.1484768642        3.2469897563       13.7014767514
  C        17.4297989488        4.3437964886       12.9923746303
  C        16.4149272564        4.0524780400       12.0684307276
  C        15.7666113360        5.0831045554       11.3930623535
  C        16.1209110589        6.4283945295       11.6161251918
  C        17.1118215273        6.7117959075       12.5738813258
  C        17.7594999641        5.6829032258       13.2536540236
  C        15.4905481265        7.5240967936       10.8436219165
  C        15.4965103843        7.5074258501        9.4224876804
  C        16.1931639799        6.5056539535        8.6757768528
  H        10.6723863544       12.4654196915       11.8999639771
  H        11.6947418765       10.5506163295       10.6580028094
  H        15.3923345441       11.1697271421       12.7661501317
  H        14.3518146305       13.0725420244       14.0112767357
  H        13.3768232672       11.6314498040        9.1962739981
  H        50.3229895228       22.7485940279       11.9819026285
  H        49.3198701463       24.6230731669       10.6758898192
  H        45.6422504542       24.1611248121       12.8585336759
  H        46.6632302277       22.2901815030       14.1668037092
  H        47.6301070454       23.5760437180        9.2411451011
  H        14.8721030573        8.5884556654       12.6034908225
  H        50.2872100725       22.7027639725        4.0653944305
  H        49.2692511532       24.5756277743        5.3654625893
  H        45.6105546384       24.1092192435        3.1512246195
  H        46.6527488859       22.2538971801        1.8369197783
  H        47.6080373771       23.5519810184        6.8019832709
  H        40.6590826305       17.1284356320        3.4326194217
  H        48.6872398268       14.0950891882       15.7949704723
  H        10.6814131168       12.4661449440        4.0977884468
  H        11.6898603683       10.5242154629        5.3015078959
  H        15.3945420812       11.1604462299        3.2119615883
  H        14.3658933761       13.0888653516        1.9968087030
  H        13.3765940119       11.6224734255        6.7581856750
  H        47.9301681412       14.2192070449        1.7158091495
  H        47.7802738588       14.3747787538       14.4904169145
  H        49.0845603129       18.5526666830        2.8727717956
  H        10.4162780003       14.1342961439        0.0038447073
  H        24.4853241629        3.0285590626       11.9118817053
  H        25.6284261950        4.8860579764       10.6864195216
  H        23.2561531052        7.7556224630       12.8401657454
  H        22.1308125208        5.8881344113       14.0663602155
  H        23.8114971832        5.7953386027        9.2614846485
  H        36.3813315503       32.1841108216       11.9566004012
  H        35.2623581058       30.3561733576       10.6761900876
  H        37.5201233247       27.4379901983       12.8872316134
  H        38.6199175603       29.2785367544       14.1755922552
  H        37.0408672320       29.4433817275        9.2675635492
  H        25.7470841822        8.6137666441       12.6427840080
  H        36.4623232565       32.2427694079        4.1209721479
  H        35.3519348301       30.4238793346        5.4172658953
  H        37.5234774789       27.4883724864        3.1422759533
  H        38.6094476206       29.3189256796        1.8343435976
  H        37.0572828000       29.4650393377        6.8292761147
  H        46.1093497409       26.5875587490        3.3907225475
  H        44.6681023712       35.1160629347       15.8088534437
  H        24.4333110835        3.0361938621        4.0915608230
  H        25.5667984070        4.8742055604        5.3436414139
  H        23.1690648625        7.7663347316        3.2496776660
  H        22.0467266860        5.9160288349        1.9983390667
  H        23.7878811409        5.7950287555        6.8226874948
  H        44.9533150143       34.3898916583        1.6999165455
  H        44.9012641505       34.2066128785       14.4855086224
  H        40.6658079650       33.2088493493        2.8580998222
  H        23.1506296935        1.9574700803        0.0102210203
  H        25.8283419032       19.6380654651       11.8948363042
  H        23.6555145634       19.6863656853       10.6637417583
  H        22.3465714137       16.2274764635       12.8591547075
  H        24.5221300898       16.1988543950       14.0891410089
  H        23.7231798259       17.6625393855        9.2410161365
  H        35.1585865644       15.4355249357       12.0046236510
  H        37.2786872154       15.3937186550       10.6846120058
  H        38.6930385462       18.8135386395       12.8757260166
  H        36.5649657667       18.8378399725       14.1950400987
  H        37.2210571775       17.3367534479        9.2386346078
  H        20.3608048103       17.9811994941       12.6647101624
  H        35.2277446692       15.4130960778        4.0211367248
  H        37.3636549200       15.3587961442        5.3344826532
  H        38.7184176282       18.8620762506        3.2427342900
  H        36.5794112230       18.9007226819        1.9379278606
  H        37.2434871809       17.3447363950        6.8049147456
  H        35.1452851497       26.6881657956        3.3987487397
  H        28.5079785776       21.0781827463       15.9698291076
  H        25.7501603526       19.6301743394        4.1635591563
  H        23.5664155689       19.6820949477        5.3803511870
  H        22.2974489091       16.1774936769        3.2348864083
  H        24.4825173870       16.1480465771        2.0141934306
  H        23.7003578927       17.6480228697        6.7994558177
  H        29.0067580311       21.7196216605        1.7646921562
  H        29.1657452921       21.7416851727       14.6237531504
  H        32.0920281502       18.5591402755        2.9928683801
  H        27.3980919586       19.0674490337        0.0876937588
  H        14.8470445259       19.6441266252        4.1502478766
  H        17.0088989860       19.6878130075        5.3945277541
  H        18.3030003055       16.1878191842        3.2562540394
  H        16.1369637731       16.1592893816        2.0118523317
  H        16.9201050109       17.6913811637        6.8562127937
  H        46.0990257812       15.4545186091        4.0850628666
  H        43.9775912778       15.4068452926        5.3997572281
  H        42.5612862877       18.8320240961        3.2161198447
  H        44.6830216992       18.8544141600        1.8917787752
  H        44.0309124104       17.3547036896        6.8530449881
  H        20.2880465841       17.9200161464        3.4276469386
  H        46.0429795627       15.3897076472       12.0294340721
  H        43.9101790253       15.3311189474       10.7347757792
  H        42.5173081586       18.7852440510       12.8862600136
  H        44.6572731591       18.8310471204       14.1803196701
  H        44.0119412581       17.3288253045        9.2929162747
  H        46.1993858532       26.6826376107       12.6182773818
  H        52.7414371882       21.0627480518        0.1998122697
  H        14.8796220865       19.6736668411       11.8902965938
  H        17.0805643596       19.7469085797       10.7110759774
  H        18.3392617001       16.2351879121       12.8505227024
  H        16.1401272361       16.1851539602       14.0389403201
  H        16.9425499133       17.7085882839        9.2933456175
  H        52.3230738503       21.6735387194       14.2889717461
  H        52.0136853537       21.7024510543        1.5007557690
  H        49.0679575900       18.6078335330       13.1989856575
  H        13.2479747135       19.0159499833       15.9723536575
  H        29.9656098204       12.4345834684        4.2032435693
  H        28.9097159381       10.4914588954        5.3705123043
  H        25.2440484391       11.2110109253        3.2396092524
  H        26.3233475026       13.1374231064        2.0602920816
  H        27.2424667070       11.6337096197        6.7854706976
  H        30.9999923130       22.7763856039        4.0227583082
  H        32.0138698389       24.6537226539        5.3235148210
  H        35.6947697204       24.1479716576        3.1569440012
  H        34.6593977233       22.2780504132        1.8526625549
  H        33.6949497759       23.5754648141        6.7553001809
  H        25.7080724554        8.5881296915        3.4065848982
  H        30.9413529923       22.7295758200       11.9471704892
  H        31.9745507060       24.5814441661       10.6308450149
  H        35.6268335949       24.1076412104       12.8529757754
  H        34.5761324191       22.2553533712       14.1670691472
  H        33.6752620942       23.5559641495        9.1998982967
  H        40.5942761797       17.0809846579       12.6602099041
  H        32.5063986313       14.1469727926        0.2600159518
  H        29.9156480162       12.5172562590       11.9438204752
  H        28.8957484176       10.6059211743       10.6847268075
  H        25.2041404347       11.1969093222       12.8097721289
  H        26.2462737635       13.0895906791       14.0728777448
  H        27.2321945344       11.6476651763        9.2350883754
  H        33.3113130804       14.2338570272       14.4656121539
  H        33.4081763822       14.4261152192        1.5978650325
  H        32.1493985685       18.5408846137       13.2539661933
  H        30.2115223418       14.1874825702        0.0839850590
  H        16.1187837734        2.9633481212        4.1353394629
  H        14.9537590631        4.8204455369        5.3280907156
  H        17.3654565119        7.6860277063        3.2143178632
  H        18.5140359759        5.8184704980        2.0144361808
  H        16.7534541179        5.7394143963        6.7767203288
  H        44.8280384156       32.1402368595        3.9823145414
  H        45.9372552972       30.3413171294        5.3117614337
  H        43.6825926185       27.3781520997        3.1574203314
  H        42.5998718906       29.1899969497        1.8148713749
  H        44.2301173813       29.4365673613        6.7740600888
  H        14.8515442404        8.5465913446        3.3684610010
  H        44.8997395594       32.2340251465       11.9265153665
  H        46.0245802215       30.4129444568       10.6469966413
  H        43.7637544194       27.4840449805       12.8405472004
  H        42.6459505572       29.3177133810       14.1195556529
  H        44.2682438114       29.4703237290        9.2131188922
  H        35.0855849052       26.6148751383       12.6266415870
  H        36.6048498035       35.1340212644        0.1857626255
  H        16.1440760367        3.0128839876       11.8984404272
  H        14.9745125771        4.8562211136       10.6827381497
  H        17.3948898048        7.7473128419       12.7511965978
  H        18.5419676026        5.8934161953       13.9788362272
  H        16.7644347959        5.7552880582        9.2142063630
  H        36.2779659515       34.4828561559       14.2679387609
  H        36.3800224621       34.2095832740        1.5050380078
  H        40.5802680358       33.2024784649       13.1485073445
  H        17.4705930146        1.9473695695       15.9689578237
  H        29.0196699373       19.2679254106        4.5035037107
  H        29.8016546646       19.7062476848       11.6160635747
  H        32.0080217671       15.8578462306       11.6302406001
  H        31.2635235165       15.5658227724        4.5145358268
  H        28.0929312110       17.8959089544        6.7579528242
  H        29.7338160113       15.1931705105        6.7839326476
  H        31.6034215423       20.0357097550        9.6266374705
  H        33.2345290888       17.0033430171        9.5732685978
  H        29.0074022976       16.5811019790        9.3030818617
  H        18.8527512511        0.8687851338        4.3403515497
  H        40.5277808385       35.2291774856       11.9469659871
  H        42.3236625342       34.4183914931       11.5857940164
  H        22.0877248229        0.6921850057        4.3566716078
  H        11.5968860413       18.7130970979        4.3877050364
  H        52.2651532777       18.4312752348       11.6722481248
  H        49.2546258127       16.4775923881       11.5799066314
  H        10.1512553438       15.7983261291        4.2974381793
  H        50.8503540058       17.6925431345       11.9490866586
  H        10.0465960779       17.3947113333        4.0569991018
  H        20.2138577956        0.0021326415        4.0472441131
  H        39.1834233139       36.1243978426       11.6813197008
  H        32.2882772768       18.5616247809        6.9660087073
 Ni        30.9399524147       17.7729264943       10.9084210258
 Ni        31.3266834991       16.4236744298        8.1597079230
 Ni        29.9665344443       18.8197021161        8.1597278076
 Ni        30.2698980308       17.4724604855        5.3327200876
  O        10.6500017314       14.3650531425       13.4806963855
  O        12.6132198630       14.6574527857       14.5787897083
  O        49.1480752150       16.8458719132       15.9846466813
  O        50.3503042271       20.9358761573       13.6429005057
  O        48.3485834879       20.5933524154       14.6607922300
  O        11.0518926134       17.0538184776       14.4956321615
  O        50.3210227949       20.8817050126        2.4119967287
  O        48.3467536872       20.5868069556        1.3322679532