     578
 i =      120, E =     -4812.1578792441
  C        11.8590311241       14.0535236093       13.7363725909
  C        12.4565284656       12.8907802717       13.0180195696
  C        11.7045800930       12.1712411062       12.0769997440
  C        12.2810025082       11.1090492202       11.3847114611
  C        13.6218591046       10.7398795387       11.6118700639
  C        14.3553813999       11.4441819315       12.5845266368
  C        13.7824511604       12.5091705357       13.2759779827
  C        14.2612570290        9.6491032184       10.8385188704
  C        14.2562690285        9.6568751974        9.4168318056
  C        13.7430058683       10.7589755893        8.6629630452
  C        49.1271630808       21.2330829997       13.8744693754
  C        48.5504948502       22.4012750268       13.1475347821
  C        49.3003615529       23.0682195369       12.1661795546
  C        48.7334791635       24.1074449858       11.4330247167
  C        47.4031536454       24.5095306100       11.6620730932
  C        46.6724587161       23.8611459511       12.6760938428
  C        47.2348520061       22.8161705026       13.4053806677
  C        46.7727640289       25.5871337037       10.8647939072
  C        46.7613665463       25.5573092797        9.4430354080
  C        47.2613371271       24.4422389018        8.6995242599
  C        14.8601015382        8.5704928535        8.7035609393
  C        14.8922792918        8.5973208030       11.5151797036
  C        49.1134174667       21.2033772241        2.1504106005
  C        48.5280580476       22.3648883663        2.8775705109
  C        49.2671074861       23.0251142419        3.8709214941
  C        48.6908561213       24.0597059047        4.6024308694
  C        47.3606839087       24.4570071331        4.3637873252
  C        46.6405411472       23.8127149783        3.3396697083
  C        47.2140267739       22.7767985114        2.6078439453
  C        46.7221432898       25.5319026759        5.1548477741
  C        46.7335501893       25.5280901979        6.5765636978
  C        47.2490032146       24.4288962316        7.3329694014
  C        40.6322932541       17.1394620371        7.3288624595
  C        40.6599970391       17.1800089964        4.5200367479
  C        11.8832912577       14.0865750583        2.2907708350
  C        12.4727132706       12.9110977828        2.9951660897
  C        11.7149667303       12.1772970096        3.9206406803
  C        12.2816561648       11.0948620974        4.5889585751
  C        13.6207709954       10.7217905917        4.3577024484
  C        14.3590740458       11.4381076920        3.3977256950
  C        13.7935612582       12.5192675228        2.7250927562
  C        14.2542568430        9.6249045552        5.1280147891
  C        14.2525149519        9.6446059178        6.5498439338
  C        13.7425523856       10.7535083468        7.2969213122
  C        22.5126343322        3.2464953703       13.7462963623
  C        23.2260100892        4.3521252286       13.0450791542
  C        24.2205718569        4.0729159510       12.0957109468
  C        24.8466493080        5.1125515759       11.4124551024
  C        24.4947566988        6.4552007155       11.6568669278
  C        23.5284154007        6.7257200583       12.6432856604
  C        22.8977621793        5.6879962963       13.3252922727
  C        25.0998427588        7.5622796485       10.8797594539
  C        25.0732576245        7.5547211779        9.4577211065
  C        24.3742856494        6.5535684217        8.7112126489
  C        38.3036206118       31.9315562627       13.8455509663
  C        37.5750404799       30.8412287481       13.1372646469
  C        36.6130519210       31.1435679370       12.1618999695
  C        35.9982523207       30.1216985394       11.4443270580
  C        36.3321840897       28.7742434303       11.6816765160
  C        37.2643658717       28.4790723998       12.6937201933
  C        37.8829227921       29.4996922414       13.4101799080
  C        35.7324007760       27.6822085210       10.8848948672
  C        35.7596360173       27.7008057417        9.4638919843
  C        36.4642014795       28.7042736514        8.7267085843
  C        25.6946168556        8.6256188041        8.7370710600
  C        25.6967301757        8.6384131153       11.5491282705
  C        38.3289634896       31.9637903618        2.1612785982
  C        37.6044831583       30.8934162589        2.9051354504
  C        36.6791313319       31.2086423564        3.9117992254
  C        36.0643544253       30.1946695644        4.6435905322
  C        36.3604865334       28.8405726862        4.3908201301
  C        37.2639286388       28.5351753028        3.3546047062
  C        37.8814640112       29.5458924832        2.6246948052
  C        35.7471842466       27.7450725837        5.1758147694
  C        35.7670576968       27.7332718492        6.5976291825
  C        36.4684353231       28.7193858765        7.3601721605
  C        46.1353883010       26.6206454622        7.2867176409
  C        46.0884086751       26.5804180522        4.4788167616
  C        22.4625129003        3.2562829917        2.2620608663
  C        23.1596154184        4.3642605327        2.9819183795
  C        24.1638182107        4.0776070223        3.9204799475
  C        24.7948186505        5.1074724305        4.6139941205
  C        24.4418726799        6.4536853085        4.3919871796
  C        23.4610608592        6.7334751286        3.4215797970
  C        22.8254827655        5.7040084707        2.7282620219
  C        25.0730774581        7.5518954455        5.1657255631
  C        25.0606687143        7.5483497982        6.5884099897
  C        24.3663516573        6.5517798770        7.3444501483
  C        26.6229747606       17.8616017722       13.7825423012
  C        25.3151892276       17.9018230868       13.0577331040
  C        25.0641891029       18.8828250474       12.0853976160
  C        23.8514608198       18.9001871133       11.3987457179
  C        22.8532687069       17.9393836724       11.6609259922
  C        23.1016886712       16.9808350566       12.6616332943
  C        24.3160730287       16.9581517500       13.3464538174
  C        21.5799263872       17.9214505809       10.8964060189
  C        21.5790446320       17.8896483025        9.4737947622
  C        22.7832010070       17.7521589431        8.7136590731
  C        34.4204299554       17.2237140623       13.9075026138
  C        35.7102558838       17.1602879825       13.1574659823
  C        35.9126840208       16.1875155559       12.1654418470
  C        37.0948095308       16.1681842604       11.4288342880
  C        38.1080968316       17.1177659281       11.6678611310
  C        37.9075527154       18.0695903242       12.6853199536
  C        36.7227459985       18.0957257859       13.4170267984
  C        39.3666421314       17.1210144059       10.8877342532
  C        39.3674135345       17.1442476227        9.4666270389
  C        38.1635334772       17.2731185882        8.7046503521
  C        20.3323943439       17.9107087546        8.7651040550
  C        20.3546072718       17.9317258259       11.5781992407
  C        34.4781794018       17.2486735365        2.1828435245
  C        35.7837956859       17.1781349681        2.9033941773
  C        36.0008292915       16.1921441662        3.8772357903
  C        37.1863719499       16.1761510738        4.6062682735
  C        38.1824842951       17.1458026505        4.3808857163
  C        37.9724051613       18.1066651281        3.3746109933
  C        36.7844817206       18.1274066006        2.6482205412
  C        39.4269257595       17.1650241001        5.1799889383
  C        39.3983744516       17.1685288502        6.6007419510
  C        38.1777551102       17.2826142015        7.3382258694
  C        35.1373894930       26.6537060032        7.3017029187
  C        35.1436415226       26.6820677714        4.4929789638
  C        26.5855636871       17.7917638583        2.3659113278
  C        25.2688366301       17.8440092362        3.0629431364
  C        25.0100176897       18.8381035712        4.0182602768
  C        23.7859469606       18.8688755447        4.6797675032
  C        22.7946236086       17.9033407199        4.4135243836
  C        23.0485410758       16.9351813440        3.4249532228
  C        24.2714321185       16.9043563473        2.7583413068
  C        21.5296986297       17.8838351281        5.1837574720
  C        21.5533554898       17.8676051323        6.6055298547
  C        22.7708111730       17.7403880890        7.3474125303
  C        14.0476489822       17.8283079370        2.2947082967
  C        15.3515586647       17.8832707958        3.0202971715
  C        15.6086589532       18.8825823231        3.9721170308
  C        16.8175406378       18.9001305194        4.6653975927
  C        17.8043258408       17.9212622822        4.4296849751
  C        17.5520578613       16.9467754193        3.4453392108
  C        16.3427293925       16.9244177236        2.7536607151
  C        19.0733527811       17.8997084547        5.1990070659
  C        19.0720055511       17.8937653477        6.6216535699
  C        17.8649751368       17.7980393585        7.3832061472
  C        46.8079151183       17.2211077140        2.1654834351
  C        45.5211617094       17.1667380065        2.9168127876
  C        45.3151392137       16.1927852866        3.9057000893
  C        44.1360822474       16.1823542137        4.6460136536
  C        43.1347828088       17.1460891145        4.4178647831
  C        43.3388377141       18.1009931065        3.4037860412
  C        44.5185064884       18.1152899970        2.6648327188
  C        41.8809986208       17.1608821453        5.2039394216
  C        41.8817218710       17.1549097913        6.6255293082
  C        43.0878935006       17.2447126883        7.3891698643
  C        20.3188105943       17.8989881285        7.3301813695
  C        20.2976933950       17.8792977582        4.5168464920
  C        46.7834585298       17.2298660534       13.8860499579
  C        45.4763148319       17.1203583401       13.1755754728
  C        45.2565503133       16.1228069819       12.2136882224
  C        44.0665138045       16.0949581689       11.4902278258
  C        43.0661023055       17.0611809957       11.7122258067
  C        43.2751013907       18.0267107106       12.7146033487
  C        44.4666458151       18.0613006964       13.4324631554
  C        41.8211093240       17.0876067134       10.9121020443
  C        41.8512271606       17.1153272703        9.4912242285
  C        43.0734847003       17.2236563468        8.7554693633
  C        46.1532034950       26.6371063381        8.7212792995
  C        46.1629692550       26.6563660070       11.5309021688
  C        14.0465261901       17.8319692633       13.7036729065
  C        15.3677400171       17.9060578583       13.0146292836
  C        15.6413372848       18.9181885111       12.0823417250
  C        16.8708048290       18.9538090378       11.4282802598
  C        17.8548315371       17.9764803929       11.6802775895
  C        17.5883503024       16.9942355265       12.6515460676
  C        16.3609772250       16.9578889582       13.3090808215
  C        19.1219834547       17.9474804565       10.9112385754
  C        19.0973419724       17.9173629804        9.4898280078
  C        17.8773918413       17.8085766599        8.7492513369
  C        28.8088681265       14.0840515891        2.3641139992
  C        28.2030483291       12.9117679925        3.0576425799
  C        28.9175427931       12.1978565570        4.0305098456
  C        28.3207319829       11.1248887539        4.6877210492
  C        26.9946170616       10.7436250149        4.3984934087
  C        26.3021350329       11.4400885371        3.3915380005
  C        26.8967470798       12.5124558692        2.7320863630
  C        26.3240622156        9.6661798590        5.1620884646
  C        26.3021508712        9.6972793967        6.5831982142
  C        26.7948527033       10.8156611502        7.3273823900
  C        32.1548776395       21.2668689901        2.1539806240
  C        32.7386816108       22.4362713028        2.8770604234
  C        31.9922464561       23.1038362134        3.8606101647
  C        32.5635231298       24.1430455171        4.5901843740
  C        33.8943325672       24.5408367155        4.3548021981
  C        34.6205498161       23.8920589485        3.3390322196
  C        34.0526813647       22.8483053441        2.6122740895
  C        34.5293742978       25.6125803300        5.1533641509
  C        34.5358722670       25.5757630367        6.5740402555
  C        34.0330504983       24.4573166098        7.3111005052
  C        25.6930561847        8.6188263483        7.3023579599
  C        25.6916698297        8.6119287467        4.4894670629
  C        32.1071029755       21.2333915814       13.8852315536
  C        32.7032882041       22.3808708551       13.1382734337
  C        31.9680813586       23.0460086600       12.1449410948
  C        32.5508750537       24.0728798187       11.4062126112
  C        33.8824571286       24.4655707247       11.6445247497
  C        34.6011496310       23.8138808946       12.6648138961
  C        34.0230645390       22.7804845180       13.3977555243
  C        34.5215477193       25.5475106563       10.8615255763
  C        34.5307091691       25.5429669721        9.4400373409
  C        34.0296571443       24.4415632575        8.6773422993
  C        40.6166171786       17.1228098167        8.7629052403
  C        40.5874489199       17.1084609680       11.5724653170
  C        28.7228570168       14.0996941277       13.7756393768
  C        28.1199377748       12.9496280414       13.0418122260
  C        28.8468711484       12.2681155895       12.0535474677
  C        28.2690544907       11.2034458763       11.3665102179
  C        26.9477232087       10.7953485015       11.6394150400
  C        26.2385533040       11.4655856038       12.6542586359
  C        26.8150127948       12.5288212135       13.3453226693
  C        26.3062146189        9.7024016516       10.8706715388
  C        26.2941999474        9.7162085721        9.4485473390
  C        26.7883829379       10.8257146443        8.6929546216
  C        18.1355225811        3.1812988727        2.3223007993
  C        17.4064084888        4.2784849933        3.0209417655
  C        16.3901565597        4.0002280869        3.9479299564
  C        15.7425252616        5.0402697785        4.6113849038
  C        16.0950671533        6.3839327377        4.3722289206
  C        17.0851209675        6.6533787150        3.4091386008
  C        17.7341305234        5.6159729732        2.7441028959
  C        15.4706437861        7.4915872694        5.1352649653
  C        15.4854841796        7.4906074503        6.5569784591
  C        16.1869817928        6.4969418204        7.3101332550
  C        42.9460285922       31.8597524235        2.0780213927
  C        43.6465030504       30.7720149348        2.8220211596
  C        44.5916027284       31.0933916154        3.8084633100
  C        45.1973615506       30.0878626397        4.5561491722
  C        44.8714375402       28.7347486709        4.3408945138
  C        43.9461868585       28.4203713523        3.3271629506
  C        43.3373190936       29.4254896724        2.5791300924
  C        45.4889069213       27.6553861664        5.1440857747
  C        45.4927398433       27.6808090808        6.5657889207
  C        44.8055280128       28.6887678373        7.3124238666
  C        14.8564567511        8.5630488946        7.2693529861
  C        14.8756779612        8.5635317952        4.4566807815
  C        42.9465185683       31.9619111599       13.8039241262
  C        43.6919293068       30.8856800948       13.0904936582
  C        44.6560670809       31.1915933775       12.1177755860
  C        45.2776431162       30.1720076312       11.4000527155
  C        44.9544053321       28.8216560138       11.6381511971
  C        44.0215618646       28.5239978506       12.6495309385
  C        43.3932781215       29.5407629237       13.3617071699
  C        45.5633246831       27.7241934627       10.8528787027
  C        45.5332228190       27.7172630998        9.4315798816
  C        44.8267883522       28.7074077656        8.6786119122
  C        35.1343430681       26.6367327669        8.7359653989
  C        35.1326411473       26.6046454244       11.5456630525
  C        18.1486870505        3.2472638804       13.7014188824
  C        17.4302652139        4.3440095748       12.9921114338
  C        16.4146023049        4.0527900788       12.0689986423
  C        15.7663438188        5.0834523002       11.3936543744
  C        16.1215010640        6.4286366060       11.6159600377
  C        17.1134840336        6.7119770986       12.5725960046
  C        17.7611312487        5.6830382197       13.2523428584
  C        15.4908468369        7.5242682027       10.8435579477
  C        15.4964508855        7.5074689636        9.4224318472
  C        16.1931474281        6.5057184798        8.6757373031
  H        10.6722469726       12.4648952114       11.9004397414
  H        11.6946322683       10.5500920169       10.6586083439
  H        15.3927454934       11.1703614849       12.7655365691
  H        14.3523285622       13.0730515287       14.0105904352
  H        13.3761992422       11.6311760167        9.1962909611
  H        50.3229349360       22.7478867408       11.9811486421
  H        49.3199338666       24.6224528135       10.6752421522
  H        45.6432410589       24.1625306897       12.8597910060
  H        46.6641408541       22.2913384257       14.1679768822
  H        47.6301965609       23.5760063737        9.2412212788
  H        14.8731218711        8.5888484379       12.6034962861
  H        50.2870027090       22.7019114199        4.0660865088
  H        49.2692399852       24.5748426282        5.3661612233
  H        45.6114455946       24.1106707055        3.1500530303
  H        46.6535363326       22.2551970122        1.8356626660
  H        47.6080824286       23.5518928029        6.8020833335
  H        40.6702285949       17.1505935864        3.4322046862
  H        48.6873434253       14.0951734202       15.7949821769
  H        10.6812764723       12.4658471118        4.0975599451
  H        11.6898028693       10.5239345391        5.3011712651
  H        15.3948528266       11.1610257402        3.2125135007
  H        14.3662943210       13.0893080633        1.9973968392
  H        13.3759714246       11.6222340869        6.7582992763
  H        47.9303823034       14.2186864310        1.7161028821
  H        47.7802440785       14.3748400455       14.4905191374
  H        49.0858107124       18.5532445150        2.8729832367
  H        10.4168064329       14.1342920945        0.0038970604
  H        24.4812594854        3.0345207382       11.9034276417
  H        25.6179263235        4.8942051136       10.6770049442
  H        23.2482858797        7.7585754211       12.8397505243
  H        22.1299524495        5.8895555825       14.0682896548
  H        23.8130222164        5.7964520434        9.2509778810
  H        36.3727301503       32.1863262813       11.9685151288
  H        35.2514780873       30.3576007768       10.6893938281
  H        37.5285444508       27.4406341466       12.8825166234
  H        38.6289611482       29.2822974631       14.1707971953
  H        37.0327906996       29.4513636340        9.2728180044
  H        25.7337283760        8.6213689260       12.6369218402
  H        36.4628525650       32.2544476075        4.1178993915
  H        35.3414651914       30.4443854621        5.4171046382
  H        37.5042221139       27.4932388318        3.1537184603
  H        38.6017461354       29.3158012218        1.8433607395
  H        37.0414911845       29.4774777057        6.8340629883
  H        46.1103101116       26.5881116183        3.3907912933
  H        44.6684497242       35.1164223532       15.8088890425
  H        24.4405135912        3.0391769929        4.0880164459
  H        25.5767154602        4.8782983807        5.3348925083
  H        23.1772529015        7.7683082335        3.2410843926
  H        22.0524717209        5.9176450627        1.9936881604
  H        23.7984101426        5.7937472159        6.8129010281
  H        44.9542279666       34.3906912003        1.7004718340
  H        44.9019743821       34.2069486567       14.4856026719
  H        40.6667145288       33.2101081953        2.8586471242
  H        23.1503254235        1.9589644682        0.0096107532
  H        25.8337275675       19.6240924895       11.8817595825
  H        23.6629634984       19.6670554709       10.6504149805
  H        22.3437957984       16.2293542322       12.8735744268
  H        24.5174072126       16.2039621535       14.1036873795
  H        23.7231717141       17.6254724599        9.2428633000
  H        35.1319383192       15.4499335022       11.9908623696
  H        37.2533207979       15.4047801432       10.6700398017
  H        38.6819779074       18.8101935361       12.8743681354
  H        36.5520786406       18.8441103046       14.1875653354
  H        37.2234822390       17.3958988393        9.2345541988
  H        20.3613975199       17.9791564866       12.6657805622
  H        35.2199087965       15.4571739430        4.0582725639
  H        37.3554100913       15.4086248244        5.3584174359
  H        38.7363042100       18.8607014418        3.1962504007
  H        36.5987984111       18.8862877052        1.8917286756
  H        37.2487580188       17.4096241284        6.7898166845
  H        35.1069251498       26.7134200163        3.4057112718
  H        28.5091179973       21.0823544864       15.9846784517
  H        25.7800208153       19.5767417054        4.2286437433
  H        23.5847587036       19.6435753579        5.4164026366
  H        22.2916466520       16.1825849532        3.2137963351
  H        24.4839975469       16.1449279256        2.0097508261
  H        23.7015508352       17.6041348815        6.8046911184
  H        28.9639818651       21.7227257487        1.7964203360
  H        29.1558723120       21.7486296353       14.6258861771
  H        32.1090395392       18.5267339228        2.9990206273
  H        27.3926725139       19.0662742816        0.0967545555
  H        14.8507685349       19.6414487368        4.1534033764
  H        17.0127216260       19.6814498003        5.3968129914
  H        18.3031998995       16.1832574742        3.2535092339
  H        16.1373010596       16.1582517374        2.0098665657
  H        16.9220204674       17.6841133163        6.8563825988
  H        46.0957125750       15.4575180746        4.0865297039
  H        43.9751192358       15.4188167351        5.4038716964
  H        42.5733164834       18.8531934797        3.2250478823
  H        44.6939675354       18.8659998191        1.8978941268
  H        44.0313966881       17.3619224142        6.8636658631
  H        20.2920874867       17.9141853350        3.4288503756
  H        46.0346964053       15.3846638511       12.0330398353
  H        43.9004275039       15.3219551516       10.7430149078
  H        42.5079277360       18.7772528118       12.8932714453
  H        44.6497371160       18.8269937299       14.1823415348
  H        44.0058984608       17.3233996162        9.3035175474
  H        46.2003487325       26.6832175299       12.6183237928
  H        52.7416166619       21.0628352660        0.1998718875
  H        14.8806280195       19.6707426305       11.8867765642
  H        17.0817801105       19.7414597641       10.7081453916
  H        18.3395363895       16.2336879714       12.8545049402
  H        16.1403964412       16.1860621444       14.0424075025
  H        16.9437035560       17.7026026891        9.2933557514
  H        52.3237194659       21.6736957973       14.2886712086
  H        52.0141289595       21.7027390860        1.5008453472
  H        49.0682674977       18.6076425303       13.1985778153
  H        13.2483300294       19.0155579185       15.9725988948
  H        29.9349068686       12.5036742236        4.2633652602
  H        28.8765109288       10.5718657653        5.4417109528
  H        25.2769427351       11.1575871605        3.1612990136
  H        26.3581634014       13.0721322359        1.9713972225
  H        27.1534319351       11.6876198286        6.7883930294
  H        30.9665511970       22.7889597383        4.0426545351
  H        31.9804857911       24.6638179541        5.3468682381
  H        35.6499256513       24.1914574354        3.1526843155
  H        34.6174803143       22.3203825635        1.8473606681
  H        33.6731615855       23.5927255227        6.7611672427
  H        25.7266732987        8.5891023520        3.4016759909
  H        30.9403139792       22.7424958845       11.9597454005
  H        31.9732547905       24.5909698140       10.6436889944
  H        35.6317751992       24.1070780674       12.8540015204
  H        34.5818295395       22.2547977504       14.1686312191
  H        33.6663786393       23.5649571343        9.2060046048
  H        40.5762653301       17.0632380742       12.6598523807
  H        32.5143104298       14.1492888018        0.2648452801
  H        29.8658087531       12.5819212367       11.8385515277
  H        28.8415903344       10.6728931249       10.6089881755
  H        25.2155091309       11.1651339315       12.8710906286
  H        26.2637768594       13.0614068614       14.1166626741
  H        27.1416131193       11.7057646662        9.2220960153
  H        33.2896680510       14.1913455844       14.4231026031
  H        33.4108881210       14.4199231302        1.6026705014
  H        32.1410346956       18.5884769310       13.2084275461
  H        30.2239988653       14.1937035824        0.0665512539
  H        16.1176258041        2.9637826218        4.1339314937
  H        14.9526871340        4.8210454260        5.3266606539
  H        17.3683056996        7.6861676336        3.2166485299
  H        18.5167907646        5.8186485521        2.0169296102
  H        16.7537368904        5.7397543895        6.7766281120
  H        44.8275301254       32.1405206321        3.9829112439
  H        45.9369511091       30.3417284892        5.3123317122
  H        43.6841241858       27.3782233342        3.1565632561
  H        42.6012044184       29.1901941937        1.8139689531
  H        44.2303502450       29.4366518117        6.7740908339
  H        14.8524922536        8.5471254113        3.3684443512
  H        44.8992382088       32.2343070416       11.9259935303
  H        46.0242355606       30.4133283906       10.6465299254
  H        43.7653008858       27.4842067216       12.8416888184
  H        42.6473835229       29.3180389559       14.1207676107
  H        44.2684260905       29.4704040862        9.2131942489
  H        35.0935284999       26.6153229895       12.6332440568
  H        36.6052797446       35.1343987915        0.1856119034
  H        16.1431493711        3.0132611716       11.8996177853
  H        14.9736937226        4.8567393242       10.6838957020
  H        17.3976224331        7.7473681234       12.7489329638
  H        18.5446002172        5.8935332577       13.9764550050
  H        16.7647744989        5.7556138883        9.2141580679
  H        36.2787407857       34.4829367224       14.2677879815
  H        36.3813281642       34.2091835627        1.5043557527
  H        40.5814059389       33.2038752985       13.1480603505
  H        17.4709899632        1.9483388952       15.9690372395
  H        28.8165438071       18.8810847389        4.3977128314
  H        29.7399632898       19.9898061085       11.7159805968
  H        32.1678345051       16.3236863455       10.7282255303
  H        31.3583688046       15.4862135468        4.4927100722
  H        28.3385454364       17.3592725281        6.9161451132
  H        31.9552167729       13.5916133218        8.1029051696
  H        31.5149269263       20.1820680059        9.5154616076
  H        33.4500367583       16.7944649241        9.8588273421
  H        29.0009161699       16.7243046843        9.3502623267
  H        18.8541081044        0.8692791128        4.3404166949
  H        40.5279954402       35.2289610576       11.9467180689
  H        42.3260321724       34.4209012645       11.5842522960
  H        22.0875464748        0.6922715410        4.3569032002
  H        11.5968616117       18.7127550238        4.3877578898
  H        52.2653324086       18.4314525423       11.6722002795
  H        49.2549108513       16.4768942483       11.5792844987
  H        10.1504667910       15.7983212988        4.2977222793
  H        50.8506395388       17.6926881350       11.9489273935
  H        10.0464162367       17.3946931329        4.0569281019
  H        20.2155019405        0.0024428269        4.0469728409
  H        39.1839582028       36.1246134612       11.6812803209
  H        32.3547879668       18.4030939581        6.7896858896
 Ni        30.6470456632       18.0398346637       10.8257089615
 Ni        31.1973696273       16.2090638572        8.0749202111
 Ni        30.0134621106       18.9392121591        7.8283144997
 Ni        30.2715751420       17.2278685394        5.4134407759
  O        10.6500087241       14.3651776830       13.4807988844
  O        12.6131710623       14.6575235554       14.5788240106
  O        49.1479346081       16.8457608901       15.9844678880
  O        50.3503518686       20.9356319813       13.6427738579
  O        48.3486117580       20.5933025661       14.6607338098
  O        11.0520028356       17.0536829941       14.4957359050
  O        50.3209949144       20.8816147735        2.4120311853
  O        48.3467424025       20.5867407545        1.3321952799