     578
 i =      270, E =     -4781.1419526908
  C        11.8588923448       14.0535789946        21.731320831238
  C        12.4564537601       12.8907009005        21.012953148138
  C        11.7044808465       12.1711841270        20.071959764138
  C        12.2808691275       11.1089576613        19.379647422038
  C        13.6217348415       10.7398665826        19.606770637738
  C        14.3553326986       11.4441736769        20.579357132338
  C        13.7824045833       12.5091852546        21.270803930138
  C        14.2611594368        9.6490583191        18.833462135838
  C        14.2563750466        9.6568504366        17.411759259038
  C        13.7431943386       10.7589981123        16.657892751838
  C        49.1270066487       21.2331100229        21.869443877738
  C        48.5502093797       22.4011977790        21.142375745338
  C        49.3002279927       23.0684883840        20.161379778738
  C        48.7333131141       24.1076716042        19.428192422938
  C        47.4028120733       24.5093472975        19.656881411938
  C        46.6718750114       23.8605071566        20.670418733338
  C        47.2343141760       22.8155693694        21.399748822038
  C        46.7724792206       25.5870039842        18.859611202538
  C        46.7612382133       25.5573340863        17.437850629638
  C        47.2611242626       24.4422011707        16.694386361938
  C        14.8602424248        8.5704719439        16.698496441538
  C        14.8919833902        8.5971690153        19.510146918338
  C        49.1132855287       21.2033581038       10.1453415622
  C        48.5278035062       22.3647454261       10.8726332586
  C        49.2670275318       23.0254626122       11.8655180684
  C        48.6906885809       24.0600139864       12.5970112915
  C        47.3602934466       24.4567624128       12.3587353449
  C        46.6398719094       23.8118765883       11.3352134407
  C        47.2134631834       22.7759851769       10.6034220066
  C        46.7218370129       25.5317718982       13.1497223948
  C        46.7333643093       25.5280707816       14.5714311933
  C        47.2487739983       24.4288587418       15.3278361417
  C        40.6323571735       17.1181539571       15.3257150580
  C        40.6557297745       17.1655944341       12.5170717024
  C        11.8832013103       14.0866525690       10.2855653029
  C        12.4726703266       12.9110015853       10.9899753161
  C        11.7149295839       12.1772493012       11.9154625036
  C        12.2816038343       11.0948290950       12.5838797985
  C        13.6207091567       10.7217792885       12.3526437771
  C        14.3590113308       11.4379980644       11.3925970255
  C        13.7934815739       12.5191256845       10.7198951481
  C        14.2541827417        9.6248356711       13.1229284522
  C        14.2527118831        9.6446272274       14.5447767097
  C        13.7427165936       10.7535324570       15.2918362507
  C        22.5130823694        3.2444836664        21.743479239738
  C        23.2302975680        4.3495412766        21.045702793538
  C        24.2256425318        4.0688732326        20.097886738338
  C        24.8541261307        5.1080826636        19.416534341338
  C        24.5036520249        6.4503503200        19.663879297738
  C        23.5376560846        6.7225002191        20.649947022638
  C        22.9038197361        5.6850242215        21.328657823138
  C        25.1062880972        7.5580576313        18.887978768838
  C        25.0698608172        7.5539943766        17.465517910238
  C        24.3685739496        6.5540593363        16.721296304738
  C        38.3036661928       31.9289238716        21.838302141538
  C        37.5770752160       30.8374309594        21.127608521938
  C        36.6179439814       31.1378697396        20.148461590538
  C        36.0050649828       30.1152081001        19.429460848438
  C        36.3363707966       28.7671360856        19.668643367538
  C        37.2657994882       28.4740365880        20.684210881438
  C        37.8829209691       29.4953974528        21.401686859938
  C        35.7383445595       27.6731747281        18.870775049638
  C        35.7729926619       27.6875544383        17.449497700838
  C        36.4785897884       28.6907925339        16.712983991538
  C        25.6820699508        8.6292805691        16.745049927338
  C        25.7068785994        8.6315121352        19.557699424338
  C        38.3295347265       31.9628600112       10.1555191475
  C        37.6095806749       30.8883376634       10.8966636092
  C        36.6824338346       31.1945113856       11.9042652024
  C        36.0759802390       30.1737855834       12.6336388193
  C        36.3829398920       28.8225326986       12.3778297484
  C        37.2871027201       28.5262617526       11.3397674173
  C        37.8957782656       29.5433977657       10.6120065511
  C        35.7796806523       27.7210170560       13.1613563423
  C        35.7948820862       27.7116950442       14.5830134792
  C        36.4888338041       28.7024059954       15.3464568242
  C        46.1353743758       26.6207243401       15.2815648732
  C        46.0879297002       26.5801621459       12.4736738726
  C        22.4602072354        3.2565347841       10.2584405962
  C        23.1517766141        4.3666178590       10.9824740020
  C        24.1510447604        4.0830359052       11.9270865610
  C        24.7755575398        5.1147823139       12.6240592443
  C        24.4217030168        6.4603466591       12.3983603070
  C        23.4460920032        6.7371645890       11.4216006604
  C        22.8163205261        5.7055752563       10.7261156292
  C        25.0475937410        7.5610937340       13.1726892065
  C        25.0396949898        7.5553569904       14.5967910382
  C        24.3524406912        6.5556375259       15.3534748521
  C        26.6260959239       17.8604367457        21.772767492938
  C        25.3192187862       17.9063970711        21.047313863838
  C        25.0718566571       18.8927661167        20.079869564138
  C        23.8574873109       18.9190263235        19.396357652738
  C        22.8560527533       17.9609172655        19.655330396738
  C        23.1022115075       16.9955823409        20.650143837638
  C        24.3174065521       16.9649819074        21.333082893838
  C        21.5822774906       17.9486679985        18.891361735438
  C        21.5802080269       17.9230910051        17.468462223838
  C        22.7849923477       17.7975412586        16.706835511538
  C        34.4511569538       17.1921376896        21.944397515638
  C        35.7371435711       17.1338648793        21.187969184938
  C        35.9428043164       16.1479345378        20.209781233138
  C        37.1168553479       16.1341791229        19.460235334538
  C        38.1187561261       17.1012967231        19.674149606938
  C        37.9155153079       18.0670183073        20.677633897438
  C        36.7375146224       18.0889027281        21.420554640838
  C        39.3731798640       17.1055380806        18.887180376938
  C        39.3709633690       17.1204725041        17.466111149138
  C        38.1646095704       17.2384554242        16.706595707338
  C        20.3325985734       17.9394305818        16.761177528938
  C        20.3572251358       17.9531690282        19.573946979938
  C        34.4776496576       17.2449476272       10.1797567588
  C        35.7813772313       17.1703094569       10.9027828894
  C        35.9994420103       16.1764524873       11.8685082618
  C        37.1844600261       16.1564801080       12.5985209354
  C        38.1786313185       17.1298559795       12.3815443978
  C        37.9671727077       18.0993092049       11.3838628995
  C        36.7801439431       18.1238965076       10.6564883034
  C        39.4238384317       17.1454675118       13.1793642934
  C        39.3968472259       17.1433065737       14.6001268016
  C        38.1765985429       17.2482605024       15.3400325888
  C        35.1675388997       26.6306553306       15.2862057126
  C        35.1877846315       26.6519877928       12.4774696499
  C        26.5670679859       17.8234748486       10.3228362511
  C        25.2532620376       17.8645632981       11.0322935509
  C        24.9696344187       18.8921145143       11.9448964617
  C        23.7537112407       18.9134748584       12.6225849115
  C        22.7893794107       17.9090943939       12.4065309993
  C        23.0659350740       16.9052591751       11.4613330690
  C        24.2841452886       16.8806634525       10.7844491252
  C        21.5251220569       17.8941150529       13.1793013909
  C        21.5510396456       17.8956364632       14.6004089335
  C        22.7709392866       17.7859498658       15.3405751449
  C        14.0464524937       17.8279288960       10.2899700289
  C        15.3494100836       17.8824968419       11.0172529162
  C        15.6066613213       18.8849336116       11.9656225196
  C        16.8149635560       18.9036441489       12.6596435669
  C        17.8005138082       17.9226108243       12.4280803065
  C        17.5476558753       16.9440879283       11.4480117837
  C        16.3389899944       16.9208892245       10.7552620615
  C        19.0697588105       17.9053878268       13.1965050495
  C        19.0699196636       17.9101253328       14.6190440707
  C        17.8636448606       17.8152746750       15.3819288676
  C        46.8067498651       17.2203419718       10.1602789837
  C        45.5194233149       17.1632946080       10.9104744606
  C        45.3145629186       16.1879028577       11.8983881226
  C        44.1351411117       16.1740767739       12.6380386962
  C        43.1314375167       17.1357947264       12.4110606374
  C        43.3341758822       18.0918276707       11.3975986176
  C        44.5142727554       18.1095233044       10.6590196260
  C        41.8781127156       17.1468073537       13.1985050967
  C        41.8807151378       17.1382879048       14.6201494362
  C        43.0879128329       17.2315166918       15.3816858050
  C        20.3172822410       17.9241865348       15.3264401055
  C        20.2934292025       17.8789663556       12.5130275465
  C        46.7847485438       17.2295729187        21.881127721338
  C        45.4793288747       17.1193091427        21.170038048138
  C        45.2617769931       16.1203457233        20.209153467738
  C        44.0728218998       16.0910302909        19.484577443738
  C        43.0721245959       17.0572077188        19.704845440838
  C        43.2790495715       18.0244103286        20.705949237238
  C        44.4694950082       18.0604944585        21.425020230538
  C        41.8270909588       17.0794843300        18.906182353238
  C        41.8548790414       17.1013792219        17.485553331538
  C        43.0757264486       17.2114839551        16.747906674038
  C        46.1531757685       26.6372021462        16.716116701338
  C        46.1626562201       26.6561773950        19.525751542738
  C        14.0469054174       17.8331775466        21.699181943238
  C        15.3688866442       17.9110329575        21.011116945738
  C        15.6411732627       18.9272867050        20.082900996638
  C        16.8709411272       18.9678717399        19.429627168738
  C        17.8567832640       17.9915045723        19.678202256338
  C        17.5915784599       17.0048644456        20.645428054838
  C        16.3638065906       16.9636833713        21.302327554538
  C        19.1239055955       17.9681434104        18.908405606538
  C        19.0980803274       17.9410468628        17.486978768238
  C        17.8775848231       17.8291112266        16.747818145038
  C        28.8066153418       14.0930921114       10.3917884057
  C        28.1879796968       12.9238987164       11.0831579936
  C        28.8917869523       12.2117478910       12.0653101024
  C        28.2875663904       11.1395376648       12.7168205109
  C        26.9651286821       10.7572016142       12.4114115560
  C        26.2839801717       11.4514152493       11.3952236756
  C        26.8861476978       12.5234480866       10.7419015171
  C        26.2902988683        9.6803000179       13.1700623137
  C        26.2688047032        9.7106143072       14.5921462388
  C        26.7521257116       10.8319324771       15.3367799661
  C        32.1804707629       21.2413411630       10.1407011947
  C        32.7793804803       22.4056543749       10.8603732513
  C        32.0358507499       23.0810014912       11.8403045735
  C        32.6109514192       24.1177842227       12.5690156680
  C        33.9445818090       24.5065100825       12.3373949135
  C        34.6704430782       23.8495226417       11.3263280449
  C        34.0978722034       22.8070588958       10.6000833271
  C        34.5776092969       25.5796659189       13.1367243854
  C        34.5762634779       25.5472492274       14.5578007596
  C        34.0725823991       24.4290099541       15.2945239620
  C        25.6704236560        8.6268044930       15.3108159116
  C        25.6609541887        8.6246048849       12.4967443166
  C        32.1073844545       21.2244806456        21.870300415638
  C        32.7027613375       22.3697441776        21.117768884038
  C        31.9695282319       23.0327110689        20.120604199038
  C        32.5551324056       24.0588136751        19.381343143638
  C        33.8857263473       24.4543908562        19.624690534238
  C        34.6006041975       23.8043567905        20.648413714538
  C        34.0212312071       22.7709853041        21.380273569238
  C        34.5283854886       25.5367396894        18.844482853338
  C        34.5490383032       25.5264219297        17.423347844038
  C        34.0585094580       24.4202249577        16.660778258738
  C        40.6189814913       17.1024694691        16.759742360638
  C        40.5951396966       17.1009903893        19.569108580638
  C        28.7462160439       14.0736040323        21.807502603338
  C        28.1328500604       12.9291041785        21.067482955338
  C        28.8521216841       12.2649358557        20.062798474138
  C        28.2706447239       11.2074566159        19.366831080638
  C        26.9541594423       10.7898024698        19.649842691138
  C        26.2526709315       11.4441932294        20.680040289638
  C        26.8324172500       12.5018687649        21.377573006738
  C        26.3083203110        9.7004465730        18.879974468238
  C        26.2808385159        9.7199049457        17.457091195238
  C        26.7563925960       10.8375029045        16.703543401838
  C        18.1353843773        3.1811717345       10.3172111633
  C        17.4061770205        4.2783282282       11.0157120974
  C        16.3905263164        4.0000110586       11.9433667394
  C        15.7428958180        5.0400112210       12.6068757165
  C        16.0947761527        6.3837580052       12.3671152406
  C        17.0839900652        6.6532492000       11.4031410620
  C        17.7329774828        5.6158858270       10.7380368757
  C        15.4704735348        7.4914316613       13.1301718222
  C        15.4855598523        7.4905383876       14.5518956176
  C        16.1869433780        6.4968108148       15.3050929575
  C        42.9460152133       31.8595557430       10.0729237760
  C        43.6464165273       30.7719366915       10.8168236520
  C        44.5918105549       31.0932570254       11.8030404142
  C        45.1974514835       30.0876998033       12.5507438106
  C        44.8711850211       28.7346082933       12.3357568754
  C        43.9456480141       28.4202941760       11.3222560219
  C        43.3368870411       29.4254199403       10.5741687690
  C        45.4887014276       27.6552822979       13.1389500601
  C        45.4927602239       27.6809032304       14.5606403908
  C        44.8057430958       28.6890020430       15.3072595069
  C        14.8565804810        8.5630089452       15.2642812691
  C        14.8754558046        8.5633805431       12.4515873652
  C        42.9465742608       31.9616055607        21.798739659538
  C        43.6918388962       30.8855440011        21.085340999038
  C        44.6561351249       31.1914835220        20.112738013838
  C        45.2777385628       30.1719089766        19.395076382038
  C        44.9543283992       28.8215483285        19.633026777838
  C        44.0213529256       28.5238669031        20.644292300238
  C        43.3930139581       29.5406064098        21.356416341838
  C        45.5632260233       27.7241322107        18.847733100238
  C        45.5333019790       27.7173969867        17.426438170638
  C        44.8270175342       28.7076282424        16.673446974238
  C        35.1550007001       26.6194317787        16.720537705938
  C        35.1341214474       26.5965957465        19.530051838538
  C        18.1485357486        3.2470845943        21.696339159738
  C        17.4299898841        4.3438260309        20.987193470038
  C        16.4147620616        4.0525532622        20.063596324038
  C        15.7664610377        5.0831913525        19.388251837538
  C        16.1211411885        6.4284515745        19.610971510838
  C        17.1124608802        6.7118374549        20.568310206438
  C        17.7601193335        5.6829242108        21.248078333038
  C        15.4906369846        7.5241308288        18.838541341338
  C        15.4963957460        7.5073497593        17.417405961938
  C        16.1930699243        6.5055766299        16.670713473438
  H        10.6721130354       12.4648060892        19.895487955538
  H        11.6944217537       10.5499584435        18.653627808838
  H        15.3927036927       11.1703478233        20.760333020038
  H        14.3522169319       13.0731270116        22.005426537038
  H        13.3762063879       11.6311107138        17.191264794038
  H        50.3229355206       22.7484262527        19.976649033338
  H        49.3198375812       24.6229305338        18.670637090438
  H        45.6424231397       24.1613763140        20.853656342938
  H        46.6633993661       22.2903315938        22.161918113438
  H        47.6298346159       23.5759144962        17.236100172238
  H        14.8725543333        8.5886408521        20.598464588238
  H        50.2870988563       22.7026327374       12.0603636338
  H        49.2691400454       24.5755041411       13.3604488717
  H        45.6105043780       24.1092023917       11.1460965783
  H        46.6527557712       22.2538377378        9.8317638571
  H        47.6076871707       23.5518097276       14.7969079300
  H        40.6635772187       17.1402307584       11.4291060154
  H        48.6871829468       14.0949747303        23.789849729438
  H        10.6812359258       12.4658442328       12.0923568150
  H        11.6896711278       10.5239509832       13.2960804145
  H        15.3947515487       11.1608042348       11.2073258777
  H        14.3661029816       13.0890941542        9.9920440165
  H        13.3759904158       11.6221854984       14.7531731350
  H        47.9302967153       14.2183452347        9.7109461904
  H        47.7801696551       14.3739586207        22.485192665238
  H        49.0847911954       18.5526536999       10.8677137378
  H        10.4162399533       14.1342867756        7.9987246860
  H        24.4841189037        3.0300304132        19.905056267438
  H        25.6258415229        4.8900359793        18.681448222038
  H        23.2601230802        7.7558422950        20.847413574138
  H        22.1351310763        5.8859886639        22.070880621938
  H        23.8122667020        5.7940901576        17.262240508638
  H        36.3778267691       32.1802815576        19.952721807438
  H        35.2610467252       30.3516327135        18.671936943238
  H        37.5293477297       27.4359103883        20.875741235038
  H        38.6264724366       29.2773405788        22.164602641638
  H        37.0424605021       29.4409819595        17.259712466538
  H        25.7530419150        8.6090842324        20.644979463538
  H        36.4584667980       32.2381375553       12.1133372629
  H        35.3515666911       30.4157229394       13.4081797259
  H        37.5351289607       27.4866767858       11.1361610925
  H        38.6170572859       29.3208360180        9.8295182589
  H        37.0617235617       29.4611494615       14.8210881128
  H        46.1096098204       26.5876411719       11.3856437519
  H        44.6684754082       35.1162262128        23.803626729338
  H        24.4293637322        3.0453656585       12.0968563196
  H        25.5544519177        4.8873242421       13.3487349870
  H        23.1612507900        7.7711501640       11.2378777494
  H        22.0469241266        5.9169640360        9.9870985514
  H        23.7832877910        5.7973618975       14.8235179473
  H        44.9546162685       34.3912059647        9.6956813935
  H        44.9025051255       34.2071446392        22.480221133438
  H        40.6665306263       33.2094513382       10.8532620672
  H        23.1506896781        1.9578274384        8.0056083743
  H        25.8463130254       19.6292967136        19.877228430738
  H        23.6703868998       19.6912395097        18.653216164638
  H        22.3422534367       16.2451574435        20.858284064538
  H        24.5178628297       16.2058028453        22.085537958838
  H        23.7265472263       17.6791105334        17.235262193238
  H        35.1686875809       15.4002674951        20.050450305638
  H        37.2779470990       15.3614491194        18.711320589538
  H        38.6817735547       18.8207789056        20.846749183038
  H        36.5634473403       18.8485660133        22.179169622238
  H        37.2248070330       17.3550525048        17.238751951638
  H        20.3651268087       17.9957885713        20.661714580838
  H        35.2211498120       15.4368741537       12.0421432731
  H        37.3543100827       15.3824980596       13.3438701772
  H        38.7297762404       18.8563253363       11.2128441600
  H        36.5934421213       18.8885589953        9.9061027175
  H        37.2455208264       17.3690634483       14.7937768938
  H        35.1548191685       26.6814973831       11.3900305595
  H        28.5077069450       21.0870760247        23.955256861038
  H        25.7107152322       19.6736560069       12.0978453774
  H        23.5336860993       19.7134814311       13.3263167986
  H        22.3292037264       16.1231235788       11.2896688150
  H        24.5139441761       16.0949360470       10.0686113947
  H        23.7016956654       17.6589855911       14.7955969135
  H        29.0027748835       21.7210339412        9.7658630507
  H        29.1472366331       21.7521513504        22.602658103538
  H        32.1190011107       18.5714042370       10.9624335580
  H        27.3992413226       19.0694470870        8.0712610784
  H        14.8494777093       19.6453820880       12.1431737749
  H        17.0108724434       19.6876655941       13.3879716165
  H        18.2978337105       16.1787067155       11.2598876219
  H        16.1328210752       16.1522810614       10.0141884445
  H        16.9204647821       17.6976770575       14.8563576349
  H        46.0964355084       15.4540160715       12.0791497074
  H        43.9757721095       15.4093645800       13.3950521509
  H        42.5671266152       18.8424987093       11.2189057616
  H        44.6878148742       18.8614007574        9.8927601231
  H        44.0302048756       17.3512656296       14.8546473015
  H        20.2869515512       17.9008633429       11.4247071646
  H        46.0406155644       15.3824772348        20.030629243938
  H        43.9071504321       15.3169967595        18.738370153438
  H        42.5107726239       18.7742419555        20.882741095438
  H        44.6516330384       18.8269275981        22.174338374138
  H        44.0086480527       17.3148273364        17.294398280338
  H        46.1998148111       26.6828276079        20.613184963838
  H        52.7413802852       21.0627138435        8.1947029247
  H        14.8790660154       19.6790689049        19.889829911638
  H        17.0806282591       19.7587700344        18.712665680738
  H        18.3440391773       16.2448839355        20.845829892038
  H        16.1443751574       16.1885934291        22.032599536938
  H        16.9447323461       17.7221826090        17.293165965638
  H        52.3231054969       21.6735011740        22.283836628438
  H        52.0136010411       21.7023304682        9.4956437809
  H        49.0678029638       18.6073064421        21.193651527538
  H        13.2480247021       19.0158361156        23.967513243038
  H        29.9078490065       12.5158803540       12.3067969515
  H        28.8358109102       10.5854348497       13.4755724132
  H        25.2621430039       11.1672686186       11.1522794054
  H        26.3582214625       13.0809582334        9.9721046085
  H        27.0949328034       11.7093236083       14.7968072192
  H        31.0109940816       22.7674218216       12.0246971094
  H        32.0298121801       24.6416293488       13.3248531008
  H        35.7025981040       24.1410086712       11.1428022020
  H        34.6629551872       22.2730648862        9.8395315094
  H        33.7195584330       23.5602280994       14.7463404298
  H        25.6969968452        8.6019620308       11.4089953540
  H        30.9400039793       22.7306317374        19.939312796538
  H        31.9798620526       24.5767502532        18.616748875938
  H        35.6301314326       24.0989734545        20.841397586438
  H        34.5778019794       22.2469278210        22.153860608838
  H        33.6966850531       23.5433939903        17.189742495138
  H        40.5860427685       17.0618793516        20.656708744238
  H        32.5166976016       14.1393343301        8.2554968266
  H        29.8654844367       12.5947303559        19.843933654938
  H        28.8371231522       10.6876710785        18.597216777238
  H        25.2333442836       11.1366293491        20.904297690538
  H        26.2872145653       13.0241282977        22.160141294938
  H        27.1012023007       11.7190390324        17.236169073738
  H        33.3002987547       14.1911828290        22.439135665938
  H        33.4097606376       14.4002078542        9.6078017931
  H        32.1631900912       18.5167102737        21.193142696438
  H        30.2112294115       14.1872892728        8.0740431124
  H        16.1184588370        2.9635307785       12.1298736656
  H        14.9534900514        4.8206921796       13.3226069582
  H        17.3663832807        7.6861224433       11.2099203202
  H        18.5148990429        5.8186204088       10.0100885106
  H        16.7535807046        5.7395045118       14.7716212533
  H        44.8280265416       32.1403327320       11.9773512634
  H        45.9372425231       30.3414734267       13.3067570456
  H        43.6832512833       27.3781890224       11.1519046119
  H        42.6005324966       29.1900664650        9.8092634596
  H        44.2305123853       29.4368682828       14.7689657303
  H        14.8519462641        8.5468693694       11.3633527976
  H        44.8994980103       32.2341685434        19.921078066638
  H        46.0244208410       30.4131732807        18.641627328838
  H        43.7649228169       27.4840845648        20.836271618038
  H        42.6470160995       29.3177786766        22.115340575038
  H        44.2686423965       29.4706294163        17.208005677138
  H        35.0881316952       26.6096465816        20.617389247038
  H        36.6050684791       35.1340717812        8.1806962084
  H        16.1436335627        3.0129976658        19.893830308938
  H        14.9741193860        4.8564038792        18.678161488238
  H        17.3960091575        7.7473030931        20.745197720738
  H        18.5430041366        5.8934820801        21.972800804538
  H        16.7645332672        5.7553381427        17.209129737938
  H        36.2781489414       34.4829063968        22.262571159638
  H        36.3804072333       34.2094657555        9.4997502381
  H        40.5809699782       33.2030742885        21.142968770438
  H        17.4708884975        1.9477924478        23.963864662738
  H        28.8440687907       19.3792969941       12.3223979452
  H        30.3383352149       19.6320987958        19.556448761438
  H        32.2855928650       16.2686443896        19.585075388738
  H        31.1424270136       15.5566543522       12.4432188212
  H        27.7525022339       18.5889262159       14.2774594571
  H        29.2787287603       15.1710177520       14.4176083585
  H        31.8051123269       20.8612992609        17.980598656438
  H        33.9614026499       16.5062041089        17.667996685638
  H        29.3630995162       16.7855480004        17.392819267038
  H        32.1049371707       18.2953767303       14.0020594091
  H        18.8532945999        0.8690530166       12.3352206172
  H        40.5278603048       35.2289732841        19.941731697338
  H        42.3249512929       34.4197223667        19.579749618938
  H        22.0879452311        0.6921656165       12.3517615307
  H        11.5969470285       18.7129689598       12.3824202580
  H        52.2652106938       18.4312477821        19.667204761238
  H        49.2553143114       16.4766251211        19.574080252638
  H        10.1509654219       15.7982469524       12.2925700968
  H        50.8503441479       17.6925438876        19.943923378838
  H        10.0466236498       17.3946750862       12.0518863630
  H        20.2146942892        0.0024436095       12.0419896177
  H        39.1835181408       36.1244501191        19.676402926338
 Ni        30.2156204928       17.3120119943        19.239648806138
 Ni        31.2816514958       16.2053820107       15.491388405538