     569
 i =      126, E =     -4760.4258746267
  C        11.8586989708       14.0534987159        21.731310828138
  C        12.4562190729       12.8905394808        21.013032408138
  C        11.7044792777       12.1714999754        20.071497234338
  C        12.2808976425       11.1093140066        19.379146427338
  C        13.6215227682       10.7396493975        19.606795931738
  C        14.3547348327       11.4433429922        20.580137756838
  C        13.7818144581       12.5083049057        21.271644823238
  C        14.2611000298        9.6490024126        18.833406925738
  C        14.2564127412        9.6569149012        17.411708515638
  C        13.7431883060       10.7590125090        16.657803392838
  C        49.1268902499       21.2332376152        21.869464988538
  C        48.5501336845       22.4011661660        21.142315133838
  C        49.3001988089       23.0686152399        20.161444519538
  C        48.7332479871       24.1077572213        19.428255288538
  C        47.4026822156       24.5093094512        19.656849881238
  C        46.6716756343       23.8602921036        20.670219997538
  C        47.2341496574       22.8153828353        21.399546270738
  C        46.7724153803       25.5870082230        18.859594500038
  C        46.7613072878       25.5573750545        17.437837526838
  C        47.2611918279       24.4422535269        16.694355677238
  C        14.8604055755        8.5706086903        16.698444640838
  C        14.8919027754        8.5970712911        19.510060129138
  C        49.1131586800       21.2034553918       10.1453804029
  C        48.5277402507       22.3647651959       10.8726531864
  C        49.2669913145       23.0256193722       11.8654464445
  C        48.6906144209       24.0601748512       12.5968793844
  C        47.3601378610       24.4567781264       12.3587352457
  C        46.6396755155       23.8116818524       11.3353751566
  C        47.2132690621       22.7757675340       10.6036304992
  C        46.7216809835       25.5317688496       13.1497365972
  C        46.7334114166       25.5281465942       14.5714364823
  C        47.2488550898       24.4289291231       15.3278061687
  C        40.6348785363       17.1670765313       15.3202027477
  C        40.6562161353       17.1822230858       12.5114226162
  C        11.8829568041       14.0865145522       10.2854628199
  C        12.4723361135       12.9107316126       10.9897291675
  C        11.7148576815       12.1775621793       11.9158878830
  C        12.2814633985       11.0951142531       12.5843091172
  C        13.6202674204       10.7213615582       12.3524336882
  C        14.3581884538       11.4368577370       11.3915380704
  C        13.7927297420       12.5180055649       10.7188367133
  C        14.2539159404        9.6246301040       13.1228363467
  C        14.2526222624        9.6445858893       14.5446788075
  C        13.7426824049       10.7535020935       15.2917576778
  C        22.5122355818        3.2442743180        21.743055064338
  C        23.2277791115        4.3488764870        21.043913374538
  C        24.2242584957        4.0676016081        20.097532097438
  C        24.8524268108        5.1063389174        19.415451723938
  C        24.4998480314        6.4485054982        19.659626052138
  C        23.5317179226        6.7213028711        20.643213686938
  C        22.8988550842        5.6843829239        21.323714766338
  C        25.1064156297        7.5543377433        18.883849058238
  C        25.0776948401        7.5475889171        17.462372983138
  C        24.3745933296        6.5489246989        16.716307726438
  C        38.2991342201       31.9279769922        21.840961844638
  C        37.5598375721       30.8390749445        21.137493532738
  C        36.5942564232       31.1459874381        20.166294186738
  C        35.9657940410       30.1282159322        19.453815892438
  C        36.2877654264       28.7770872884        19.689129383738
  C        37.2232042021       28.4774850907        20.697582243938
  C        37.8554491673       29.4942917308        21.409598083738
  C        35.6781242518       27.6890458374        18.889767557838
  C        35.7141293533       27.7060749245        17.467922836738
  C        36.4250832830       28.7077509289        16.734338230338
  C        25.7002906889        8.6177225320        16.742504198938
  C        25.7052230897        8.6282428452        19.554653813238
  C        38.3299075772       31.9617204664       10.1590711404
  C        37.6103484064       30.8900036010       10.9069872501
  C        36.6782306006       31.2023544987       11.9086017553
  C        36.0652609099       30.1870901336       12.6407092750
  C        36.3694685420       28.8330932346       12.3950452373
  C        37.2821465922       28.5305973974       11.3657810114
  C        37.8971106296       29.5424924652       10.6348962096
  C        35.7526540390       27.7363169729       13.1770831978
  C        35.7518495794       27.7305677972       14.5995622262
  C        36.4421086070       28.7200930599       15.3678250881
  C        46.1354418309       26.6208065199       15.2815663641
  C        46.0877391323       26.5801221500       12.4736670274
  C        22.4611231520        3.2560704354       10.2578765960
  C        23.1554778218        4.3646354520       10.9806893284
  C        24.1574908703        4.0784228755       11.9216287544
  C        24.7856957523        5.1083723725       12.6177030399
  C        24.4322116658        6.4544817893       12.3957044938
  C        23.4533917632        6.7339191716       11.4231573841
  C        22.8205123445        5.7042326381       10.7275327724
  C        25.0631196965        7.5524794580       13.1702762529
  C        25.0558534581        7.5462205316       14.5932014053
  C        24.3623472852        6.5492983046       15.3496341247
  C        26.6215558305       17.8608010734        21.777753707838
  C        25.3135793330       17.9030459059        21.052252425538
  C        25.0584039894       18.8973845962        20.094757483138
  C        23.8463115372       18.9192520570        19.407092737538
  C        22.8533160693       17.9490853254        19.653474221638
  C        23.1060049668       16.9761848576        20.639088201538
  C        24.3197671745       16.9496644887        21.325283258738
  C        21.5802124582       17.9361955086        18.888345006538
  C        21.5788132244       17.9173931451        17.465459300538
  C        22.7840850151       17.8031107767        16.702604747338
  C        34.4407697003       17.1953557883        21.911333803338
  C        35.7317233872       17.1543872097        21.163190865838
  C        35.9347141580       16.2000636634        20.154227369638
  C        37.1137206041       16.1984626262        19.414225114038
  C        38.1230533039       17.1479170772        19.666420407438
  C        37.9230258496       18.0819080415        20.700569420138
  C        36.7400425126       18.0908812290        21.435604324138
  C        39.3779588721       17.1630041343        18.882095453338
  C        39.3752707454       17.1875465192        17.460760360738
  C        38.1701601069       17.3213053766        16.701639742838
  C        20.3312205368       17.9314890243        16.758331646038
  C        20.3554703391       17.9369850132        19.571235087238
  C        34.4773536548       17.2462731145       10.1798957876
  C        35.7815279884       17.1732291060       10.8994174302
  C        35.9901974332       16.2048220469       11.8924027588
  C        37.1753548657       16.1940595630       12.6220775066
  C        38.1794138908       17.1506379276       12.3770401234
  C        37.9777135120       18.0922510424       11.3507947018
  C        36.7900738960       18.1089230887       10.6248598364
  C        39.4244739132       17.1764800905       13.1743554957
  C        39.3990411512       17.1952398625       14.5952213643
  C        38.1810998655       17.3232980339       15.3349725887
  C        35.1138299939       26.6531279453       15.2998789540
  C        35.1636465584       26.6669551884       12.4902398362
  C        26.5623406864       17.8216128288       10.3218306115
  C        25.2478611195       17.8681032385       11.0264549241
  C        24.9608117282       18.9026551004       11.9299107946
  C        23.7447208294       18.9240609539       12.6071779416
  C        22.7850974025       17.9136630208       12.4002026461
  C        23.0641139214       16.9039854972       11.4616967154
  C        24.2819834150       16.8789719265       10.7847325359
  C        21.5223016082       17.8973965858       13.1754821433
  C        21.5492854585       17.8985724115       14.5965752682
  C        22.7702165281       17.7958354794       15.3361939795
  C        14.0451981118       17.8275872725       10.2896452968
  C        15.3479524439       17.8813405936       11.0173499155
  C        15.6056694705       18.8843595310       11.9647256732
  C        16.8139019361       18.9024293812       12.6587347930
  C        17.7980220340       17.9202569362       12.4271193768
  C        17.5446074271       16.9406403928       11.4485784049
  C        16.3359103002       16.9181002793       10.7560982992
  C        19.0674431893       17.9032118483       13.1946173622
  C        19.0682478052       17.9046674571       14.6168810083
  C        17.8621547244       17.8049603897       15.3794752743
  C        46.8069659169       17.2203327567       10.1595744532
  C        45.5194291673       17.1651196389       10.9077367276
  C        45.3132405338       16.1943966434       11.8998756913
  C        44.1332062660       16.1855216324       12.6384669384
  C        43.1310645265       17.1472721680       12.4052935564
  C        43.3346337676       18.0975189652       11.3867739018
  C        44.5153035318       18.1106437123       10.6497250795
  C        41.8785321034       17.1676668719       13.1926487562
  C        41.8827345527       17.1730339657       14.6140531335
  C        43.0909929299       17.2650497515       15.3741319969
  C        20.3158450992       17.9204921932       15.3235526088
  C        20.2903466266       17.8798716805       12.5101391129
  C        46.7856751572       17.2314587246        21.879621284138
  C        45.4816781085       17.1291821384        21.166050523138
  C        45.2611062209       16.1380659217        20.197855456238
  C        44.0726574893       16.1193178371        19.472137673838
  C        43.0760343346       17.0885355827        19.698065290038
  C        43.2860580879       18.0475386447        20.706340025338
  C        44.4756022013       18.0730144530        21.426733204838
  C        41.8314519687       17.1225854185        18.899749393038
  C        41.8588411336       17.1485059304        17.479214908138
  C        43.0797051835       17.2507458561        16.740566312038
  C        46.1532859992       26.6372665756        16.716114211838
  C        46.1625427665       26.6561504865        19.525747562338
  C        14.0460819662       17.8317477773        21.698716094438
  C        15.3679160390       17.9060987962        21.009180139738
  C        15.6421345398       18.9207249691        20.079947264938
  C        16.8717267465       18.9575716777        19.426064954938
  C        17.8550720607       17.9789150897        19.675282353438
  C        17.5879170777       16.9935835615        20.643117383438
  C        16.3602861331       16.9561981803        21.300493520838
  C        19.1222126038       17.9534455396        18.905698425638
  C        19.0967765013       17.9283506889        17.484320941238
  C        17.8762437888       17.8154641008        16.745314213038
  C        28.8107050757       14.0941097475       10.3932567970
  C        28.1988351074       12.9190057982       11.0796770648
  C        28.9182453176       12.1840572944       12.0337009181
  C        28.3187374052       11.1087437947       12.6846537569
  C        26.9853626624       10.7448535550       12.4068079401
  C        26.2886739545       11.4595512613       11.4158115591
  C        26.8860981625       12.5344604372       10.7625722846
  C        26.3153798982        9.6655121545       13.1677434900
  C        26.3023462167        9.6919768099       14.5889512284
  C        26.8046674679       10.8050800325       15.3352428737
  C        32.1768590886       21.2383896296       10.1495484113
  C        32.7651540283       22.4100572042       10.8658540215
  C        32.0113223532       23.0931027465       11.8327780801
  C        32.5782077016       24.1356859783       12.5599693270
  C        33.9146840425       24.5232856491       12.3421572800
  C        34.6505999716       23.8594477956       11.3424526387
  C        34.0860638802       22.8118540416       10.6168411865
  C        34.5408460477       25.5989149188       13.1455913862
  C        34.5239784825       25.5710665976       14.5674454220
  C        34.0090813884       24.4566623609       15.3023453943
  C        25.6934068086        8.6136229573       15.3077550701
  C        25.6788495404        8.6145661307       12.4943065333
  C        32.0837322954       21.2021614709        21.865559975738
  C        32.6552641602       22.3622321051        21.117928953538
  C        31.9206832623       23.0139707625        20.115111852838
  C        32.4939047683       24.0534725877        19.384408535938
  C        33.8157841156       24.4718453744        19.636699445338
  C        34.5320044247       23.8327185351        20.667155085038
  C        33.9640181445       22.7897236237        21.393379949838
  C        34.4549828596       25.5582885640        18.857500273238
  C        34.4788654707       25.5507596169        17.435342192338
  C        33.9867198044       24.4477733701        16.668743368638
  C        40.6225676223       17.1586816307        16.754117249738
  C        40.6001017623       17.1473699338        19.563511479238
  C        28.7477579652       14.0672497705        21.810976114338
  C        28.1356496523       12.9207564553        21.072702516738
  C        28.8708471999       12.2265048618        20.099962980138
  C        28.2903699173       11.1702282509        19.401548910238
  C        26.9584185659       10.7820835273        19.650493283838
  C        26.2401217501       11.4645794171        20.650017359838
  C        26.8192312797       12.5213071353        21.350324453038
  C        26.3166210300        9.6914695230        18.877624542538
  C        26.3047057558        9.7047763050        17.455742029138
  C        26.8042444803       10.8123111412        16.701074353138
  C        18.1354465041        3.1810360854       10.3171492708
  C        17.4062062536        4.2782530205       11.0157864839
  C        16.3904669402        3.9999287895       11.9432990502
  C        15.7428044950        5.0399349937       12.6068038869
  C        16.0947326507        6.3836512384       12.3670856283
  C        17.0841448430        6.6531280904       11.4033384865
  C        17.7331895505        5.6157658151       10.7382754031
  C        15.4704641308        7.4913569495       13.1301587877
  C        15.4856913604        7.4906297110       14.5518707656
  C        16.1873201013        6.4970619848       15.3050377393
  C        42.9458260524       31.8595453368       10.0728918541
  C        43.6461966997       30.7718577778       10.8168001478
  C        44.5915778085       31.0931957478       11.8030156088
  C        45.1972701195       30.0876421654       12.5506799906
  C        44.8709820820       28.7345547088       12.3357222522
  C        43.9453561363       28.4202169112       11.3223146315
  C        43.3365568393       29.4253528739       10.5742532122
  C        45.4885322507       27.6552575058       13.1389398037
  C        45.4927430115       27.6809325943       14.5606361610
  C        44.8057115753       28.6890021225       15.3072832609
  C        14.8566884419        8.5631060938       15.2642236045
  C        14.8751526750        8.5631031543       12.4515568155
  C        42.9464999331       31.9616457861        21.798788993438
  C        43.6917975452       30.8855281598        21.085404310038
  C        44.6562260332       31.1914622361        20.112940467838
  C        45.2777756247       30.1718830171        19.395232506738
  C        44.9542125749       28.8215351465        19.633022767338
  C        44.0209599541       28.5238579057        20.644022644338
  C        43.3926697651       29.5406085051        21.356196082338
  C        45.5631878538       27.7241421392        18.847725809138
  C        45.5333789958       27.7174441982        17.426426465938
  C        44.8270534729       28.7076688292        16.673468471638
  C        35.0927768681       26.6419308414        16.735110573838
  C        35.0660261414       26.6146200603        19.545525530238
  C        18.1486669666        3.2470149950        21.696340418938
  C        17.4300975311        4.3438281198        20.987066233438
  C        16.4148192308        4.0525832782        20.063556777138
  C        15.7665162305        5.0832469535        19.388219830938
  C        16.1212985783        6.4284666165        19.610877653438
  C        17.1128050491        6.7118080708        20.568013894238
  C        17.7604913889        5.6828750854        21.247737097438
  C        15.4907784460        7.5241723698        18.838462296838
  C        15.4966671619        7.5075329939        17.417330384338
  C        16.1935047791        6.5058732751        16.670643747638
  H        10.6722984528       12.4655163496        19.894577635838
  H        11.6945886534       10.5507234546        18.652705742038
  H        15.3918289078       11.1689001473        20.761752057938
  H        14.3513172731       13.0716680987        22.006942135138
  H        13.3761032252       11.6310943186        17.191135929138
  H        50.3229313089       22.7486212774        19.976756226338
  H        49.3197488586       24.6231024101        18.670744797938
  H        45.6421383586       24.1609607731        20.853297573138
  H        46.6630925150       22.2899877079        22.161498683738
  H        47.6297254249       23.5758824029        17.236053491438
  H        14.8722906251        8.5883590192        20.598367929238
  H        50.2871019378       22.7028962907       12.0602324061
  H        49.2690338366       24.5757459130       13.3602854607
  H        45.6102027008       24.1087728010       11.1464483524
  H        46.6524021884       22.2534593017        9.8322002599
  H        47.6075807019       23.5517951680       14.7968956517
  H        40.6638269023       17.1418521091       11.4239148471
  H        48.6869386873       14.0949688623        23.789793144838
  H        10.6813886174       12.4666279429       12.0933212530
  H        11.6896946170       10.5247147332       13.2970207739
  H        15.3936107190       11.1589740575       11.2055470422
  H        14.3650190594       13.0873342674        9.9902342752
  H        13.3758034418       11.6220933220       14.7531204769
  H        47.9302071281       14.2181382655        9.7109184616
  H        47.7799944182       14.3731915249        22.484776580338
  H        49.0841508217       18.5526596434       10.8674575454
  H        10.4160195493       14.1342644931        7.9986449977
  H        24.4840328978        3.0287139799        19.906803452838
  H        25.6252907417        4.8881327652        18.681638130238
  H        23.2524200990        7.7546487802        20.838144317738
  H        22.1291439386        5.8856250978        22.064786450038
  H        23.8134878009        5.7920993244        17.256677337638
  H        36.3609775814       32.1900940118        19.971446959138
  H        35.2177102432       30.3713261760        18.702404136538
  H        37.4803076897       27.4374289172        20.887577962838
  H        38.6030426978       29.2693804165        22.166674055638
  H        36.9886660030       29.4563864740        17.283440899638
  H        25.7413523310        8.6104022080        20.642417705038
  H        36.4537819465       32.2473443969       12.1102005951
  H        35.3360275624       30.4360333483       13.4085070590
  H        37.5305707857       27.4896292338       11.1697013379
  H        38.6227432373       29.3129140103        9.8583563731
  H        37.0198376727       29.4778405132       14.8462701727
  H        46.1091573632       26.5874841367       11.3856305265
  H        44.6683825975       35.1162392654        23.803712309038
  H        24.4349181558        3.0401424676       12.0889804232
  H        25.5662950735        4.8791369122       13.3399824596
  H        23.1688322571        7.7685031890       11.2424148903
  H        22.0490746625        5.9175687467        9.9912057626
  H        23.7913845055        5.7932837143       14.8184545217
  H        44.9541094933       34.3906285382        9.6953153886
  H        44.9020910177       34.2069207651        22.480409045538
  H        40.6664459620       33.2093420385       10.8532338324
  H        23.1504132000        1.9579560616        8.0053151379
  H        25.8242759330       19.6465031164        19.906321651438
  H        23.6526554083       19.6980429575        18.672465369638
  H        22.3519319876       16.2173312055        20.838071352638
  H        24.5252027489       16.1849399713        22.070842826038
  H        23.7261543716       17.6911670774        17.231360216238
  H        35.1529472847       15.4695501043        19.960144544838
  H        37.2704469817       15.4511080301        18.639460965438
  H        38.6949437612       18.8225496928        20.899375770838
  H        36.5681331368       18.8263012457        22.218193509838
  H        37.2314634934       17.4514738261        17.232434164038
  H        20.3633614793       17.9764543564        20.659111281838
  H        35.2034356472       15.4804830409       12.0895982190
  H        37.3369928537       15.4411083656       13.3903191913
  H        38.7477340571       18.8362190509       11.1573812180
  H        36.6103737271       18.8546858156        9.8541240860
  H        37.2508806657       17.4544684926       14.7894453029
  H        35.1440754436       26.6925859121       11.4023555193
  H        28.5032513027       21.0790368353        23.882931978138
  H        25.7005704504       19.6855520861       12.0813108232
  H        23.5219254760       19.7282073223       13.3052583667
  H        22.3301550741       16.1179132045       11.2963752850
  H        24.5145034797       16.0884881706       10.0750165678
  H        23.7015596237       17.6794489400       14.7897346935
  H        28.9951454143       21.7215882341        9.7561158063
  H        29.1852742862       21.7245244906        22.563198828638
  H        32.1358486505       18.5518178797       10.9791941644
  H        27.4067509788       19.0719357681        8.0873461590
  H        14.8489022130       19.6454244121       12.1414011857
  H        17.0108607937       19.6865614991       13.3866521412
  H        18.2940873605       16.1743398622       11.2614787794
  H        16.1282725479       16.1490757675       10.0158842010
  H        16.9193219979       17.6866685356       14.8533980077
  H        46.0945269876       15.4609501812       12.0849071463
  H        43.9721812552       15.4254369054       13.3997579208
  H        42.5679405596       18.8474923247       11.2038092589
  H        44.6905269796       18.8583403428        9.8798386823
  H        44.0335123316       17.3775122141       14.8459332233
  H        20.2828103003       17.9023040623       11.4218536102
  H        46.0367677743       15.3978705940        20.015026701938
  H        43.9040422149       15.3512821216        18.720436769438
  H        42.5208267842       18.7994103558        20.887559910938
  H        44.6603448914       18.8332578619        22.181613613638
  H        44.0136006057       17.3510889190        17.285977600938
  H        46.1994843348       26.6826985264        20.613189805438
  H        52.7411704689       21.0625835335        8.1946889681
  H        14.8817538057       19.6742101099        19.886617778638
  H        17.0831057756       19.7472317480        18.708238677338
  H        18.3383196946       16.2316329700        20.843756260238
  H        16.1388787346       16.1823306265        22.031455083938
  H        16.9438673828       17.7052487226        17.290846623738
  H        52.3223428434       21.6732223365        22.284092542038
  H        52.0130637390       21.7019422387        9.4955814819
  H        49.0674787605       18.6076769884        21.193865024438
  H        13.2476325611       19.0160527290        23.967223561338
  H        29.9452195343       12.4696760565       12.2503332204
  H        28.8786064732       10.5372920917       13.4218328278
  H        25.2588833570       11.1880721079       11.1927072791
  H        26.3458946596       13.1067631299       10.0124032430
  H        27.1652915131       11.6748134088       14.7945496262
  H        30.9850988138       22.7800899909       12.0098780258
  H        31.9883614404       24.6643567931       13.3056198722
  H        35.6850236722       24.1485893908       11.1682352725
  H        34.6607244075       22.2733240501        9.8667378829
  H        33.6567903109       23.5882598294       14.7529447317
  H        25.7093181623        8.5949785559       11.4063099755
  H        30.9018966287       22.6899497637        19.914566008738
  H        31.9155358804       24.5600949650        18.614799657938
  H        35.5552577918       24.1426979029        20.869074914538
  H        34.5236866203       22.2760185968        22.171472386438
  H        33.6167190657       23.5719958367        17.193932975338
  H        40.5912574165       17.0992445034        20.650742701538
  H        32.5085280706       14.1473702810        8.2618281718
  H        29.8982960404       12.5291278446        19.910521084438
  H        28.8685369455       10.6272550720        18.656947102338
  H        25.2093919451       11.1781471264        20.848834961638
  H        26.2614189195       13.0641253399        22.109763430638
  H        27.1636693322       11.6872892424        17.234793872838
  H        33.3103976582       14.2197710705        22.456130301338
  H        33.4090781441       14.4126607711        9.6020477433
  H        32.1345464310       18.5004127695        21.187276666638
  H        30.2172568760       14.1904113011        8.0836963320
  H        16.1183770253        2.9634361244       12.1297081463
  H        14.9533477108        4.8206056601       13.3224705396
  H        17.3666402058        7.6859873088       11.2102334045
  H        18.5152596058        5.8184129035       10.0104616164
  H        16.7539826859        5.7397958453       14.7715458120
  H        44.8277972452       32.1402801327       11.9772769286
  H        45.9370493224       30.3414256067       13.3066994102
  H        43.6828474400       27.3781248411       11.1520450346
  H        42.6001811029       29.1899818204        9.8093675637
  H        44.2303931153       29.4368109260       14.7689997748
  H        14.8514208349        8.5463619169       11.3633344386
  H        44.8996389650       32.2341506249        19.921360910038
  H        46.0245605522       30.4131484912        18.641887059538
  H        43.7642452256       27.4841040703        20.835788855338
  H        42.6463891941       29.3177754828        22.114845092338
  H        44.2686233465       29.4706136631        17.208047674638
  H        35.0202738612       26.6251478395        20.632925956638
  H        36.6052693268       35.1340809542        8.1806575744
  H        16.1436401664        3.0130245814        19.893895115438
  H        14.9741131416        4.8564664070        18.678201378638
  H        17.3964668501        7.7472524366        20.744799028238
  H        18.5435173724        5.8933281243        21.972336860938
  H        16.7650172311        5.7556946320        17.209084476138
  H        36.2788402086       34.4822802591        22.262923200238
  H        36.3812376026       34.2089794853        9.4994279224
  H        40.5796636948       33.2021380607        21.143573280538
  H        17.4710329183        1.9473566977        23.963870521338
  H        28.6194521538       18.8471224742       12.2822600238
  H        29.8986933536       19.6975837684        19.633348857938
  H        31.9093441689       15.7680447501        19.591688199138
  H        31.2933127260       15.5513441323       12.5331240311
  H        29.3465538401       15.2100462774       14.4585791664
  H        31.9549194314       20.0061619833        17.783284567738
  H        32.9341541354       17.0805108682        17.357667805838
  H        28.6704885448       17.2552702463        17.270024480338
  H        18.8536792072        0.8690945028       12.3351792823
  H        40.5281138228       35.2288961250        19.941819915538
  H        42.3242109111       34.4190187947        19.580091642538
  H        22.0876502820        0.6920933207       12.3515592595
  H        11.5967923222       18.7130038386       12.3825018791
  H        52.2649804280       18.4308678080        19.667075897238
  H        49.2547152719       16.4770893122        19.574491083838
  H        10.1497351356       15.7982371216       12.2930267010
  H        50.8499556562       17.6924972576        19.944031154338
  H        10.0458935762       17.3944939874       12.0519544688
  H        20.2150842662        0.0022859797       12.0419096345
  H        39.1838018181       36.1246041641        19.676448810538
 Ni        30.8623189622       17.7107522338        18.820910638938
 Ni        30.9904969808       16.4178149935        15.991764212438
 Ni        30.3552441069       19.0404232935        16.157950442638
 Ni        30.2674423669       17.4292700960       13.3996965538