 DBCSR| CPU Multiplication driver                                           XSMM
 DBCSR| Multrec recursion limit                                              512
 DBCSR| Multiplication stack size                                           1000
 DBCSR| Maximum elements for images                                    UNLIMITED
 DBCSR| Multiplicative factor virtual images                                   1
 DBCSR| Use multiplication densification                                       T
 DBCSR| Multiplication size stacks                                             3
 DBCSR| Number of 3D layers                                               SINGLE
 DBCSR| Use MPI memory allocation                                              T
 DBCSR| Use RMA algorithm                                                      F
 DBCSR| Use Communication thread                                               T
 DBCSR| Communication thread load                                             87


  **** **** ******  **  PROGRAM STARTED AT               2021-11-26 19:19:49.491
 ***** ** ***  *** **   PROGRAM STARTED ON         node1905.palmetto.clemson.edu
 **    ****   ******    PROGRAM STARTED BY                               svicchi
 ***** **    ** ** **   PROGRAM PROCESS ID                               3545585
  **** **  *******  **  PROGRAM STARTED IN  /scratch2/svicchi/CP2K-4064449.pbs02

 CP2K| version string:                                          CP2K version 7.1
 CP2K| source code revision number:                                  git:e635599
 CP2K| cp2kflags: libint fftw3 libxc parallel mpi3 scalapack xsmm               
 CP2K| is freely available from                            https://www.cp2k.org/
 CP2K| Program compiled at                          Wed Aug 12 10:01:37 EDT 2020
 CP2K| Program compiled on                           util02.palmetto.clemson.edu
 CP2K| Program compiled for                          linux-centos8-ivybridge-gcc
 CP2K| Data directory path    /software/spackages/linux-centos8-ivybridge/gcc-8.
 CP2K| Input file name                068_Zr18_C264_Ni4_O104_H188_UKS-multi9.inp

 GLOBAL| Force Environment number                                              1
 GLOBAL| Basis set file name                                          BASIS_file
 GLOBAL| Potential file name                                     POTENTIALS_file
 GLOBAL| MM Potential file name                                     MM_POTENTIAL
 GLOBAL| Coordinate file name           068_Zr18_C264_Ni4_O104_H188_UKS-multi9.x
 GLOBAL| Method name                                                        CP2K
 GLOBAL| Project name                   info-248-068_Zr18_C264_Ni4_O104_H188_UKS
 GLOBAL| Preferred FFT library                                             FFTW3
 GLOBAL| Preferred diagonalization lib.                                       SL
 GLOBAL| Run type                                           VIBRATIONAL_ANALYSIS
 GLOBAL| All-to-all communication in single precision                          F
 GLOBAL| FFTs using library dependent lengths                                  F
 GLOBAL| Global print level                                               MEDIUM
 GLOBAL| MPI I/O enabled                                                       T
 GLOBAL| Total number of message passing processes                            16
 GLOBAL| Number of threads for this process                                    1
 GLOBAL| This output is from process                                           0
 GLOBAL| CPU model name                 Intel(R) Xeon(R) CPU E5-2665 0 @ 2.40GHz
 GLOBAL| CPUID                                                              1001

 MEMORY| system memory details [Kb]
 MEMORY|                        rank 0           min           max       average
 MEMORY| MemTotal            131713748     131713748     131713748     131713748
 MEMORY| MemFree             124801368     124801368     124801368     124801368
 MEMORY| Buffers                  6408          6408          6408          6408
 MEMORY| Cached                3453080       3453080       3453080       3453080
 MEMORY| Slab                   612396        612396        612396        612396
 MEMORY| SReclaimable           244124        244124        244124        244124
 MEMORY| MemLikelyFree       128504980     128504980     128504980     128504980


 *** Fundamental physical constants (SI units) ***

 *** Literature: B. J. Mohr and B. N. Taylor,
 ***             CODATA recommended values of the fundamental physical
 ***             constants: 2006, Web Version 5.1
 ***             http://physics.nist.gov/constants

 Speed of light in vacuum [m/s]                             2.99792458000000E+08
 Magnetic constant or permeability of vacuum [N/A**2]       1.25663706143592E-06
 Electric constant or permittivity of vacuum [F/m]          8.85418781762039E-12
 Planck constant (h) [J*s]                                  6.62606896000000E-34
 Planck constant (h-bar) [J*s]                              1.05457162825177E-34
 Elementary charge [C]                                      1.60217648700000E-19
 Electron mass [kg]                                         9.10938215000000E-31
 Electron g factor [ ]                                     -2.00231930436220E+00
 Proton mass [kg]                                           1.67262163700000E-27
 Fine-structure constant                                    7.29735253760000E-03
 Rydberg constant [1/m]                                     1.09737315685270E+07
 Avogadro constant [1/mol]                                  6.02214179000000E+23
 Boltzmann constant [J/K]                                   1.38065040000000E-23
 Atomic mass unit [kg]                                      1.66053878200000E-27
 Bohr radius [m]                                            5.29177208590000E-11

 *** Conversion factors ***

 [u] -> [a.u.]                                              1.82288848426455E+03
 [Angstrom] -> [Bohr] = [a.u.]                              1.88972613288564E+00
 [a.u.] = [Bohr] -> [Angstrom]                              5.29177208590000E-01
 [a.u.] -> [s]                                              2.41888432650478E-17
 [a.u.] -> [fs]                                             2.41888432650478E-02
 [a.u.] -> [J]                                              4.35974393937059E-18
 [a.u.] -> [N]                                              8.23872205491840E-08
 [a.u.] -> [K]                                              3.15774647902944E+05
 [a.u.] -> [kJ/mol]                                         2.62549961709828E+03
 [a.u.] -> [kcal/mol]                                       6.27509468713739E+02
 [a.u.] -> [Pa]                                             2.94210107994716E+13
 [a.u.] -> [bar]                                            2.94210107994716E+08
 [a.u.] -> [atm]                                            2.90362800883016E+08
 [a.u.] -> [eV]                                             2.72113838565563E+01
 [a.u.] -> [Hz]                                             6.57968392072181E+15
 [a.u.] -> [1/cm] (wave numbers)                            2.19474631370540E+05
 [a.u./Bohr**2] -> [1/cm]                                   5.14048714338585E+03
 

 CELL_TOP| Volume [angstrom^3]:                                        22838.217
 CELL_TOP| Vector a [angstrom    40.611     0.000     0.000    |a| =      40.611
 CELL_TOP| Vector b [angstrom    20.305    35.170     0.000    |b| =      40.611
 CELL_TOP| Vector c [angstrom     0.000     0.000    15.990    |c| =      15.990
 CELL_TOP| Angle (b,c), alpha [degree]:                                   90.000
 CELL_TOP| Angle (a,c), beta  [degree]:                                   90.000
 CELL_TOP| Angle (a,b), gamma [degree]:                                   60.000
 CELL_TOP| Requested initial symmetry:                       MONOCLINIC_GAMMA_AB
 CELL_TOP| Numerically orthorhombic:                                          NO

 CELL| Volume [angstrom^3]:                                            22838.217
 CELL| Vector a [angstrom]:      40.611     0.000     0.000    |a| =      40.611
 CELL| Vector b [angstrom]:      20.305    35.170     0.000    |b| =      40.611
 CELL| Vector c [angstrom]:       0.000     0.000    15.990    |c| =      15.990
 CELL| Angle (b,c), alpha [degree]:                                       90.000
 CELL| Angle (a,c), beta  [degree]:                                       90.000
 CELL| Angle (a,b), gamma [degree]:                                       60.000
 CELL| Requested initial symmetry:                           MONOCLINIC_GAMMA_AB
 CELL| Numerically orthorhombic:                                              NO

 CELL_REF| Volume [angstrom^3]:                                        22838.217
 CELL_REF| Vector a [angstrom    40.611     0.000     0.000    |a| =      40.611
 CELL_REF| Vector b [angstrom    20.305    35.170     0.000    |b| =      40.611
 CELL_REF| Vector c [angstrom     0.000     0.000    15.990    |c| =      15.990
 CELL_REF| Angle (b,c), alpha [degree]:                                   90.000
 CELL_REF| Angle (a,c), beta  [degree]:                                   90.000
 CELL_REF| Angle (a,b), gamma [degree]:                                   60.000
 CELL_REF| Requested initial symmetry:                       MONOCLINIC_GAMMA_AB
 CELL_REF| Numerically orthorhombic:                                          NO

 *******************************************************************************
 *******************************************************************************
 **                                                                           **
 **     #####                         ##              ##                      **
 **    ##   ##            ##          ##              ##                      **
 **   ##     ##                       ##            ######                    **
 **   ##     ##  ##   ##  ##   #####  ##  ##   ####   ##    #####    #####    **
 **   ##     ##  ##   ##  ##  ##      ## ##   ##      ##   ##   ##  ##   ##   **
 **   ##  ## ##  ##   ##  ##  ##      ####     ###    ##   ######   ######    **
 **    ##  ###   ##   ##  ##  ##      ## ##      ##   ##   ##       ##        **
 **     #######   #####   ##   #####  ##  ##  ####    ##    #####   ##        **
 **           ##                                                    ##        **
 **                                                                           **
 **                                                ... make the atoms dance   **
 **                                                                           **
 **            Copyright (C) by CP2K developers group (2000 - 2019)           **
 **                                                                           **
 *******************************************************************************

 DFT| Spin unrestricted (spin-polarized) Kohn-Sham calculation               UKS
 DFT| Multiplicity                                                             9
 DFT| Number of spin states                                                    2
 DFT| Charge                                                                   0
 DFT| Self-interaction correction (SIC)                                       NO
 DFT| Cutoffs: density                                              1.000000E-10
 DFT|          gradient                                             1.000000E-10
 DFT|          tau                                                  1.000000E-10
 DFT|          cutoff_smoothing_range                               0.000000E+00
 DFT| XC density smoothing                                                  NONE
 DFT| XC derivatives                                                          PW
 FUNCTIONAL| ROUTINE=NEW
 FUNCTIONAL| PBE:
 FUNCTIONAL| J.P.Perdew, K.Burke, M.Ernzerhof, Phys. Rev. Letter, vol. 77, n 18,
 FUNCTIONAL|  pp. 3865-3868, (1996){spin polarized}                             
 vdW POTENTIAL|                                                   Pair Potential
 vdW POTENTIAL|          DFT-D3 (Version 3.1)
 vdW POTENTIAL|          Potential Form: S. Grimme et al, JCP 132: 154104 (2010)
 vdW POTENTIAL|          BJ Damping: S. Grimme et al, JCC 32: 1456 (2011)
 vdW POTENTIAL|          Cutoff Radius [Bohr]:                             20.00
 vdW POTENTIAL|          s6 Scaling Factor:                               1.0000
 vdW POTENTIAL|          a1 Damping Factor:                               0.4289
 vdW POTENTIAL|          s8 Scaling Factor:                               0.7875
 vdW POTENTIAL|          a2 Damping Factor:                               4.4407
 vdW POTENTIAL|          Cutoff for CN calculation:                   0.1000E-05

 QS| Method:                                                                 GPW
 QS| Density plane wave grid type                        NON-SPHERICAL FULLSPACE
 QS| Number of grid levels:                                                    5
 QS| Density cutoff [a.u.]:                                                180.0
 QS| Multi grid cutoff [a.u.]: 1) grid level                               180.0
 QS|                           2) grid level                                60.0
 QS|                           3) grid level                                20.0
 QS|                           4) grid level                                 6.7
 QS|                           5) grid level                                 2.2
 QS| Grid level progression factor:                                          3.0
 QS| Relative density cutoff [a.u.]:                                        40.0
 QS| Consistent realspace mapping and integration 
 QS| Interaction thresholds: eps_pgf_orb:                                1.0E-05
 QS|                         eps_filter_matrix:                          0.0E+00
 QS|                         eps_core_charge:                            1.0E-12
 QS|                         eps_rho_gspace:                             1.0E-10
 QS|                         eps_rho_rspace:                             1.0E-10
 QS|                         eps_gvg_rspace:                             1.0E-05
 QS|                         eps_ppl:                                    1.0E-02
 QS|                         eps_ppnl:                                   1.0E-07


 ATOMIC KIND INFORMATION

  1. Atomic kind: C                                     Number of atoms:     264

     Orbital Basis Set                                     DZVP-MOLOPT-SR-GTH-q4

       Number of orbital shell sets:                                           1
       Number of orbital shells:                                               5
       Number of primitive Cartesian functions:                                5
       Number of Cartesian basis functions:                                   14
       Number of spherical basis functions:                                   13
       Norm type:                                                              2

       Normalised Cartesian orbitals:

                        Set   Shell   Orbital            Exponent    Coefficient

                          1       1    2s                5.605331       0.322515
                                                         2.113016       0.213043
                                                         0.769911      -0.209686
                                                         0.348157      -0.219794
                                                         0.128212      -0.022789

                          1       2    3s                5.605331       0.552234
                                                         2.113016       0.082072
                                                         0.769911       0.007843
                                                         0.348157       0.136893
                                                         0.128212       0.074283

                          1       3    3px               5.605331      -0.703879
                                                         2.113016      -0.642521
                                                         0.769911      -0.374851
                                                         0.348157      -0.139743
                                                         0.128212      -0.027849
                          1       3    3py               5.605331      -0.703879
                                                         2.113016      -0.642521
                                                         0.769911      -0.374851
                                                         0.348157      -0.139743
                                                         0.128212      -0.027849
                          1       3    3pz               5.605331      -0.703879
                                                         2.113016      -0.642521
                                                         0.769911      -0.374851
                                                         0.348157      -0.139743
                                                         0.128212      -0.027849

                          1       4    4px               5.605331      -0.480376
                                                         2.113016      -0.552894
                                                         0.769911      -0.316145
                                                         0.348157       0.210505
                                                         0.128212       0.076095
                          1       4    4py               5.605331      -0.480376
                                                         2.113016      -0.552894
                                                         0.769911      -0.316145
                                                         0.348157       0.210505
                                                         0.128212       0.076095
                          1       4    4pz               5.605331      -0.480376
                                                         2.113016      -0.552894
                                                         0.769911      -0.316145
                                                         0.348157       0.210505
                                                         0.128212       0.076095

                          1       5    4dx2              5.605331       0.640026
                                                         2.113016       0.274300
                                                         0.769911       0.446711
                                                         0.348157       0.028674
                                                         0.128212       0.029790
                          1       5    4dxy              5.605331       1.108557
                                                         2.113016       0.475102
                                                         0.769911       0.773726
                                                         0.348157       0.049666
                                                         0.128212       0.051599
                          1       5    4dxz              5.605331       1.108557
                                                         2.113016       0.475102
                                                         0.769911       0.773726
                                                         0.348157       0.049666
                                                         0.128212       0.051599
                          1       5    4dy2              5.605331       0.640026
                                                         2.113016       0.274300
                                                         0.769911       0.446711
                                                         0.348157       0.028674
                                                         0.128212       0.029790
                          1       5    4dyz              5.605331       1.108557
                                                         2.113016       0.475102
                                                         0.769911       0.773726
                                                         0.348157       0.049666
                                                         0.128212       0.051599
                          1       5    4dz2              5.605331       0.640026
                                                         2.113016       0.274300
                                                         0.769911       0.446711
                                                         0.348157       0.028674
                                                         0.128212       0.029790

     GTH Potential information for                                    GTH-PBE-q4

       Description:                       Goedecker-Teter-Hutter pseudopotential
                                           Goedecker et al., PRB 54, 1703 (1996)
                                          Hartwigsen et al., PRB 58, 3641 (1998)
                                                      Krack, TCA 114, 145 (2005)

       Gaussian exponent of the core charge distribution:               4.364419
       Electronic configuration (s p d ...):                               2   2

       Parameters of the local part of the GTH pseudopotential:

                          rloc        C1          C2          C3          C4
                        0.338471   -8.803674    1.339211

       Parameters of the non-local part of the GTH pseudopotential:

                   l      r(l)      h(i,j,l)

                   0    0.302576    9.622487
                   1    0.291507

  2. Atomic kind: H                                     Number of atoms:     188

     Orbital Basis Set                                     DZVP-MOLOPT-SR-GTH-q1

       Number of orbital shell sets:                                           1
       Number of orbital shells:                                               3
       Number of primitive Cartesian functions:                                5
       Number of Cartesian basis functions:                                    5
       Number of spherical basis functions:                                    5
       Norm type:                                                              2

       Normalised Cartesian orbitals:

                        Set   Shell   Orbital            Exponent    Coefficient

                          1       1    2s               10.068468      -0.133023
                                                         2.680223      -0.177618
                                                         0.791502      -0.258419
                                                         0.239116      -0.107525
                                                         0.082193      -0.014019

                          1       2    3s               10.068468       0.344673
                                                         2.680223       1.819821
                                                         0.791502      -0.999069
                                                         0.239116       0.017430
                                                         0.082193       0.082660

                          1       3    3px              10.068468       0.155326
                                                         2.680223       0.367157
                                                         0.791502       0.311480
                                                         0.239116       0.080105
                                                         0.082193       0.033440
                          1       3    3py              10.068468       0.155326
                                                         2.680223       0.367157
                                                         0.791502       0.311480
                                                         0.239116       0.080105
                                                         0.082193       0.033440
                          1       3    3pz              10.068468       0.155326
                                                         2.680223       0.367157
                                                         0.791502       0.311480
                                                         0.239116       0.080105
                                                         0.082193       0.033440

     GTH Potential information for                                    GTH-PBE-q1

       Description:                       Goedecker-Teter-Hutter pseudopotential
                                           Goedecker et al., PRB 54, 1703 (1996)
                                          Hartwigsen et al., PRB 58, 3641 (1998)
                                                      Krack, TCA 114, 145 (2005)

       Gaussian exponent of the core charge distribution:              12.500000
       Electronic configuration (s p d ...):                                   1

       Parameters of the local part of the GTH pseudopotential:

                          rloc        C1          C2          C3          C4
                        0.200000   -4.178900    0.724463

  3. Atomic kind: Ni                                    Number of atoms:       4

     Orbital Basis Set                                    DZVP-MOLOPT-SR-GTH-q18

       Number of orbital shell sets:                                           1
       Number of orbital shells:                                               8
       Number of primitive Cartesian functions:                                6
       Number of Cartesian basis functions:                                   31
       Number of spherical basis functions:                                   26
       Norm type:                                                              2

       Normalised Cartesian orbitals:

                        Set   Shell   Orbital            Exponent    Coefficient

                          1       1    2s               10.077428      -0.684558
                                                         5.847736      -0.844524
                                                         2.494033       1.088856
                                                         0.988355       0.395503
                                                         0.344978       0.010224
                                                         0.099466      -0.003250

                          1       2    3s               10.077428       0.096747
                                                         5.847736       0.162504
                                                         2.494033      -0.297192
                                                         0.988355      -0.319752
                                                         0.344978       0.088318
                                                         0.099466       0.118587

                          1       3    4s               10.077428       0.036437
                                                         5.847736      -0.381480
                                                         2.494033       0.003759
                                                         0.988355      -1.048256
                                                         0.344978       0.855825
                                                         0.099466      -0.176350

                          1       4    3px              10.077428      -3.133913
                                                         5.847736       3.027656
                                                         2.494033       2.353227
                                                         0.988355       0.554184
                                                         0.344978       0.019462
                                                         0.099466      -0.000291
                          1       4    3py              10.077428      -3.133913
                                                         5.847736       3.027656
                                                         2.494033       2.353227
                                                         0.988355       0.554184
                                                         0.344978       0.019462
                                                         0.099466      -0.000291
                          1       4    3pz              10.077428      -3.133913
                                                         5.847736       3.027656
                                                         2.494033       2.353227
                                                         0.988355       0.554184
                                                         0.344978       0.019462
                                                         0.099466      -0.000291

                          1       5    4px              10.077428      -0.112729
                                                         5.847736      -0.114008
                                                         2.494033      -0.347303
                                                         0.988355      -0.110323
                                                         0.344978       0.154096
                                                         0.099466       0.058386
                          1       5    4py              10.077428      -0.112729
                                                         5.847736      -0.114008
                                                         2.494033      -0.347303
                                                         0.988355      -0.110323
                                                         0.344978       0.154096
                                                         0.099466       0.058386
                          1       5    4pz              10.077428      -0.112729
                                                         5.847736      -0.114008
                                                         2.494033      -0.347303
                                                         0.988355      -0.110323
                                                         0.344978       0.154096
                                                         0.099466       0.058386

                          1       6    4dx2             10.077428       8.232726
                                                         5.847736       9.105758
                                                         2.494033       2.849835
                                                         0.988355       0.554319
                                                         0.344978       0.067245
                                                         0.099466       0.001940
                          1       6    4dxy             10.077428      14.259500
                                                         5.847736      15.771636
                                                         2.494033       4.936060
                                                         0.988355       0.960109
                                                         0.344978       0.116472
                                                         0.099466       0.003360
                          1       6    4dxz             10.077428      14.259500
                                                         5.847736      15.771636
                                                         2.494033       4.936060
                                                         0.988355       0.960109
                                                         0.344978       0.116472
                                                         0.099466       0.003360
                          1       6    4dy2             10.077428       8.232726
                                                         5.847736       9.105758
                                                         2.494033       2.849835
                                                         0.988355       0.554319
                                                         0.344978       0.067245
                                                         0.099466       0.001940
                          1       6    4dyz             10.077428      14.259500
                                                         5.847736      15.771636
                                                         2.494033       4.936060
                                                         0.988355       0.960109
                                                         0.344978       0.116472
                                                         0.099466       0.003360
                          1       6    4dz2             10.077428       8.232726
                                                         5.847736       9.105758
                                                         2.494033       2.849835
                                                         0.988355       0.554319
                                                         0.344978       0.067245
                                                         0.099466       0.001940

                          1       7    5dx2             10.077428      -2.715373
                                                         5.847736      -4.020640
                                                         2.494033      -1.397569
                                                         0.988355      -0.076143
                                                         0.344978       0.033435
                                                         0.099466       0.026032
                          1       7    5dxy             10.077428      -4.703164
                                                         5.847736      -6.963952
                                                         2.494033      -2.420661
                                                         0.988355      -0.131883
                                                         0.344978       0.057911
                                                         0.099466       0.045088
                          1       7    5dxz             10.077428      -4.703164
                                                         5.847736      -6.963952
                                                         2.494033      -2.420661
                                                         0.988355      -0.131883
                                                         0.344978       0.057911
                                                         0.099466       0.045088
                          1       7    5dy2             10.077428      -2.715373
                                                         5.847736      -4.020640
                                                         2.494033      -1.397569
                                                         0.988355      -0.076143
                                                         0.344978       0.033435
                                                         0.099466       0.026032
                          1       7    5dyz             10.077428      -4.703164
                                                         5.847736      -6.963952
                                                         2.494033      -2.420661
                                                         0.988355      -0.131883
                                                         0.344978       0.057911
                                                         0.099466       0.045088
                          1       7    5dz2             10.077428      -2.715373
                                                         5.847736      -4.020640
                                                         2.494033      -1.397569
                                                         0.988355      -0.076143
                                                         0.344978       0.033435
                                                         0.099466       0.026032

                          1       8    5fx3             10.077428      -0.467694
                                                         5.847736       0.618100
                                                         2.494033       0.066069
                                                         0.988355       0.262898
                                                         0.344978       0.004720
                                                         0.099466       0.007748
                          1       8    5fx2y            10.077428      -1.045795
                                                         5.847736       1.382114
                                                         2.494033       0.147734
                                                         0.988355       0.587859
                                                         0.344978       0.010555
                                                         0.099466       0.017325
                          1       8    5fx2z            10.077428      -1.045795
                                                         5.847736       1.382114
                                                         2.494033       0.147734
                                                         0.988355       0.587859
                                                         0.344978       0.010555
                                                         0.099466       0.017325
                          1       8    5fxy2            10.077428      -1.045795
                                                         5.847736       1.382114
                                                         2.494033       0.147734
                                                         0.988355       0.587859
                                                         0.344978       0.010555
                                                         0.099466       0.017325
                          1       8    5fxyz            10.077428      -1.811371
                                                         5.847736       2.393892
                                                         2.494033       0.255883
                                                         0.988355       1.018201
                                                         0.344978       0.018282
                                                         0.099466       0.030008
                          1       8    5fxz2            10.077428      -1.045795
                                                         5.847736       1.382114
                                                         2.494033       0.147734
                                                         0.988355       0.587859
                                                         0.344978       0.010555
                                                         0.099466       0.017325
                          1       8    5fy3             10.077428      -0.467694
                                                         5.847736       0.618100
                                                         2.494033       0.066069
                                                         0.988355       0.262898
                                                         0.344978       0.004720
                                                         0.099466       0.007748
                          1       8    5fy2z            10.077428      -1.045795
                                                         5.847736       1.382114
                                                         2.494033       0.147734
                                                         0.988355       0.587859
                                                         0.344978       0.010555
                                                         0.099466       0.017325
                          1       8    5fyz2            10.077428      -1.045795
                                                         5.847736       1.382114
                                                         2.494033       0.147734
                                                         0.988355       0.587859
                                                         0.344978       0.010555
                                                         0.099466       0.017325
                          1       8    5fz3             10.077428      -0.467694
                                                         5.847736       0.618100
                                                         2.494033       0.066069
                                                         0.988355       0.262898
                                                         0.344978       0.004720
                                                         0.099466       0.007748

     GTH Potential information for                                   GTH-PBE-q18

       Description:                       Goedecker-Teter-Hutter pseudopotential
                                           Goedecker et al., PRB 54, 1703 (1996)
                                          Hartwigsen et al., PRB 58, 3641 (1998)
                                                      Krack, TCA 114, 145 (2005)

       Gaussian exponent of the core charge distribution:               4.081633
       Electronic configuration (s p d ...):                           4   6   8

       Parameters of the local part of the GTH pseudopotential:

                          rloc        C1          C2          C3          C4
                        0.350000    2.102166    0.648484

       Parameters of the non-local part of the GTH pseudopotential:

                   l      r(l)      h(i,j,l)

                   0    0.261295    0.622658    9.970227
                                    9.970227  -12.871507
                   1    0.224253  -11.142708   12.429566
                                   12.429566  -14.706861
                   2    0.215348  -12.628146

  4. Atomic kind: O                                     Number of atoms:     104

     Orbital Basis Set                                     DZVP-MOLOPT-SR-GTH-q6

       Number of orbital shell sets:                                           1
       Number of orbital shells:                                               5
       Number of primitive Cartesian functions:                                5
       Number of Cartesian basis functions:                                   14
       Number of spherical basis functions:                                   13
       Norm type:                                                              2

       Normalised Cartesian orbitals:

                        Set   Shell   Orbital            Exponent    Coefficient

                          1       1    2s               10.389228       0.396646
                                                         3.849621       0.208811
                                                         1.388401      -0.301641
                                                         0.496955      -0.274061
                                                         0.162492      -0.033677

                          1       2    3s               10.389228       0.303673
                                                         3.849621       0.240943
                                                         1.388401      -0.313066
                                                         0.496955      -0.043055
                                                         0.162492       0.213991

                          1       3    3px              10.389228      -1.530415
                                                         3.849621      -1.371928
                                                         1.388401      -0.761951
                                                         0.496955      -0.253695
                                                         0.162492      -0.035541
                          1       3    3py              10.389228      -1.530415
                                                         3.849621      -1.371928
                                                         1.388401      -0.761951
                                                         0.496955      -0.253695
                                                         0.162492      -0.035541
                          1       3    3pz              10.389228      -1.530415
                                                         3.849621      -1.371928
                                                         1.388401      -0.761951
                                                         0.496955      -0.253695
                                                         0.162492      -0.035541

                          1       4    4px              10.389228      -0.565392
                                                         3.849621      -0.038231
                                                         1.388401      -0.382373
                                                         0.496955       0.179070
                                                         0.162492       0.122714
                          1       4    4py              10.389228      -0.565392
                                                         3.849621      -0.038231
                                                         1.388401      -0.382373
                                                         0.496955       0.179070
                                                         0.162492       0.122714
                          1       4    4pz              10.389228      -0.565392
                                                         3.849621      -0.038231
                                                         1.388401      -0.382373
                                                         0.496955       0.179070
                                                         0.162492       0.122714

                          1       5    4dx2             10.389228       1.867377
                                                         3.849621       0.670994
                                                         1.388401       1.353441
                                                         0.496955       0.273538
                                                         0.162492       0.006620
                          1       5    4dxy             10.389228       3.234392
                                                         3.849621       1.162195
                                                         1.388401       2.344229
                                                         0.496955       0.473781
                                                         0.162492       0.011466
                          1       5    4dxz             10.389228       3.234392
                                                         3.849621       1.162195
                                                         1.388401       2.344229
                                                         0.496955       0.473781
                                                         0.162492       0.011466
                          1       5    4dy2             10.389228       1.867377
                                                         3.849621       0.670994
                                                         1.388401       1.353441
                                                         0.496955       0.273538
                                                         0.162492       0.006620
                          1       5    4dyz             10.389228       3.234392
                                                         3.849621       1.162195
                                                         1.388401       2.344229
                                                         0.496955       0.473781
                                                         0.162492       0.011466
                          1       5    4dz2             10.389228       1.867377
                                                         3.849621       0.670994
                                                         1.388401       1.353441
                                                         0.496955       0.273538
                                                         0.162492       0.006620

     GTH Potential information for                                    GTH-PBE-q6

       Description:                       Goedecker-Teter-Hutter pseudopotential
                                           Goedecker et al., PRB 54, 1703 (1996)
                                          Hartwigsen et al., PRB 58, 3641 (1998)
                                                      Krack, TCA 114, 145 (2005)

       Gaussian exponent of the core charge distribution:               8.360253
       Electronic configuration (s p d ...):                               2   4

       Parameters of the local part of the GTH pseudopotential:

                          rloc        C1          C2          C3          C4
                        0.244554  -16.667215    2.487311

       Parameters of the non-local part of the GTH pseudopotential:

                   l      r(l)      h(i,j,l)

                   0    0.220956   18.337458
                   1    0.211332

  5. Atomic kind: Zr                                    Number of atoms:      18

     Orbital Basis Set                                    DZVP-MOLOPT-SR-GTH-q12

       Number of orbital shell sets:                                           1
       Number of orbital shells:                                               8
       Number of primitive Cartesian functions:                                7
       Number of Cartesian basis functions:                                   31
       Number of spherical basis functions:                                   26
       Norm type:                                                              2

       Normalised Cartesian orbitals:

                        Set   Shell   Orbital            Exponent    Coefficient

                          1       1    2s                7.568386      -0.292925
                                                         2.940870       1.053802
                                                         1.478550      -0.194175
                                                         0.699653      -0.477593
                                                         0.314575      -0.092850
                                                         0.129869       0.000474
                                                         0.046851      -0.000485

                          1       2    3s                7.568386      -0.107602
                                                         2.940870       0.453694
                                                         1.478550      -0.133469
                                                         0.699653      -0.242646
                                                         0.314575      -0.112324
                                                         0.129869       0.079936
                                                         0.046851       0.057275

                          1       3    4s                7.568386      -0.039443
                                                         2.940870      -0.239516
                                                         1.478550       0.462939
                                                         0.699653       0.054202
                                                         0.314575       0.378792
                                                         0.129869      -0.467495
                                                         0.046851       0.135277

                          1       4    3px               7.568386      -0.367032
                                                         2.940870       1.199938
                                                         1.478550      -0.729727
                                                         0.699653      -0.527717
                                                         0.314575      -0.102074
                                                         0.129869      -0.002163
                                                         0.046851      -0.000016
                          1       4    3py               7.568386      -0.367032
                                                         2.940870       1.199938
                                                         1.478550      -0.729727
                                                         0.699653      -0.527717
                                                         0.314575      -0.102074
                                                         0.129869      -0.002163
                                                         0.046851      -0.000016
                          1       4    3pz               7.568386      -0.367032
                                                         2.940870       1.199938
                                                         1.478550      -0.729727
                                                         0.699653      -0.527717
                                                         0.314575      -0.102074
                                                         0.129869      -0.002163
                                                         0.046851      -0.000016

                          1       5    4px               7.568386      -0.041149
                                                         2.940870       0.296409
                                                         1.478550      -0.285807
                                                         0.699653      -0.254468
                                                         0.314575       0.008755
                                                         0.129869       0.053085
                                                         0.046851       0.019526
                          1       5    4py               7.568386      -0.041149
                                                         2.940870       0.296409
                                                         1.478550      -0.285807
                                                         0.699653      -0.254468
                                                         0.314575       0.008755
                                                         0.129869       0.053085
                                                         0.046851       0.019526
                          1       5    4pz               7.568386      -0.041149
                                                         2.940870       0.296409
                                                         1.478550      -0.285807
                                                         0.699653      -0.254468
                                                         0.314575       0.008755
                                                         0.129869       0.053085
                                                         0.046851       0.019526

                          1       6    4dx2              7.568386      -0.104612
                                                         2.940870      -0.141339
                                                         1.478550       0.540679
                                                         0.699653       0.284252
                                                         0.314575       0.094561
                                                         0.129869       0.012195
                                                         0.046851       0.000412
                          1       6    4dxy              7.568386      -0.181193
                                                         2.940870      -0.244806
                                                         1.478550       0.936483
                                                         0.699653       0.492339
                                                         0.314575       0.163785
                                                         0.129869       0.021122
                                                         0.046851       0.000713
                          1       6    4dxz              7.568386      -0.181193
                                                         2.940870      -0.244806
                                                         1.478550       0.936483
                                                         0.699653       0.492339
                                                         0.314575       0.163785
                                                         0.129869       0.021122
                                                         0.046851       0.000713
                          1       6    4dy2              7.568386      -0.104612
                                                         2.940870      -0.141339
                                                         1.478550       0.540679
                                                         0.699653       0.284252
                                                         0.314575       0.094561
                                                         0.129869       0.012195
                                                         0.046851       0.000412
                          1       6    4dyz              7.568386      -0.181193
                                                         2.940870      -0.244806
                                                         1.478550       0.936483
                                                         0.699653       0.492339
                                                         0.314575       0.163785
                                                         0.129869       0.021122
                                                         0.046851       0.000713
                          1       6    4dz2              7.568386      -0.104612
                                                         2.940870      -0.141339
                                                         1.478550       0.540679
                                                         0.699653       0.284252
                                                         0.314575       0.094561
                                                         0.129869       0.012195
                                                         0.046851       0.000412

                          1       7    5dx2              7.568386      -0.107600
                                                         2.940870       0.230973
                                                         1.478550      -0.200541
                                                         0.699653      -0.193347
                                                         0.314575       0.007888
                                                         0.129869       0.006706
                                                         0.046851       0.006900
                          1       7    5dxy              7.568386      -0.186369
                                                         2.940870       0.400056
                                                         1.478550      -0.347346
                                                         0.699653      -0.334887
                                                         0.314575       0.013663
                                                         0.129869       0.011615
                                                         0.046851       0.011951
                          1       7    5dxz              7.568386      -0.186369
                                                         2.940870       0.400056
                                                         1.478550      -0.347346
                                                         0.699653      -0.334887
                                                         0.314575       0.013663
                                                         0.129869       0.011615
                                                         0.046851       0.011951
                          1       7    5dy2              7.568386      -0.107600
                                                         2.940870       0.230973
                                                         1.478550      -0.200541
                                                         0.699653      -0.193347
                                                         0.314575       0.007888
                                                         0.129869       0.006706
                                                         0.046851       0.006900
                          1       7    5dyz              7.568386      -0.186369
                                                         2.940870       0.400056
                                                         1.478550      -0.347346
                                                         0.699653      -0.334887
                                                         0.314575       0.013663
                                                         0.129869       0.011615
                                                         0.046851       0.011951
                          1       7    5dz2              7.568386      -0.107600
                                                         2.940870       0.230973
                                                         1.478550      -0.200541
                                                         0.699653      -0.193347
                                                         0.314575       0.007888
                                                         0.129869       0.006706
                                                         0.046851       0.006900

                          1       8    5fx3              7.568386       0.371480
                                                         2.940870      -0.155968
                                                         1.478550      -0.211323
                                                         0.699653      -0.255968
                                                         0.314575      -0.046738
                                                         0.129869      -0.005674
                                                         0.046851       0.000171
                          1       8    5fx2y             7.568386       0.830655
                                                         2.940870      -0.348756
                                                         1.478550      -0.472533
                                                         0.699653      -0.572361
                                                         0.314575      -0.104510
                                                         0.129869      -0.012687
                                                         0.046851       0.000382
                          1       8    5fx2z             7.568386       0.830655
                                                         2.940870      -0.348756
                                                         1.478550      -0.472533
                                                         0.699653      -0.572361
                                                         0.314575      -0.104510
                                                         0.129869      -0.012687
                                                         0.046851       0.000382
                          1       8    5fxy2             7.568386       0.830655
                                                         2.940870      -0.348756
                                                         1.478550      -0.472533
                                                         0.699653      -0.572361
                                                         0.314575      -0.104510
                                                         0.129869      -0.012687
                                                         0.046851       0.000382
                          1       8    5fxyz             7.568386       1.438737
                                                         2.940870      -0.604063
                                                         1.478550      -0.818452
                                                         0.699653      -0.991359
                                                         0.314575      -0.181017
                                                         0.129869      -0.021975
                                                         0.046851       0.000662
                          1       8    5fxz2             7.568386       0.830655
                                                         2.940870      -0.348756
                                                         1.478550      -0.472533
                                                         0.699653      -0.572361
                                                         0.314575      -0.104510
                                                         0.129869      -0.012687
                                                         0.046851       0.000382
                          1       8    5fy3              7.568386       0.371480
                                                         2.940870      -0.155968
                                                         1.478550      -0.211323
                                                         0.699653      -0.255968
                                                         0.314575      -0.046738
                                                         0.129869      -0.005674
                                                         0.046851       0.000171
                          1       8    5fy2z             7.568386       0.830655
                                                         2.940870      -0.348756
                                                         1.478550      -0.472533
                                                         0.699653      -0.572361
                                                         0.314575      -0.104510
                                                         0.129869      -0.012687
                                                         0.046851       0.000382
                          1       8    5fyz2             7.568386       0.830655
                                                         2.940870      -0.348756
                                                         1.478550      -0.472533
                                                         0.699653      -0.572361
                                                         0.314575      -0.104510
                                                         0.129869      -0.012687
                                                         0.046851       0.000382
                          1       8    5fz3              7.568386       0.371480
                                                         2.940870      -0.155968
                                                         1.478550      -0.211323
                                                         0.699653      -0.255968
                                                         0.314575      -0.046738
                                                         0.129869      -0.005674
                                                         0.046851       0.000171

     GTH Potential information for                                   GTH-PBE-q12

       Description:                       Goedecker-Teter-Hutter pseudopotential
                                           Goedecker et al., PRB 54, 1703 (1996)
                                          Hartwigsen et al., PRB 58, 3641 (1998)
                                                      Krack, TCA 114, 145 (2005)

       Gaussian exponent of the core charge distribution:               2.263468
       Electronic configuration (s p d ...):                           4   6   2

       Parameters of the local part of the GTH pseudopotential:

                          rloc        C1          C2          C3          C4
                        0.470000    7.796057   -1.893210

       Parameters of the non-local part of the GTH pseudopotential:

                   l      r(l)      h(i,j,l)

                   0    0.259829   23.380874   -8.571939
                                   -8.571939   11.066326
                   1    0.288969    8.592766   -5.377358
                                   -5.377358    6.362576
                   2    0.581245    0.027811    0.276862
                                    0.276862   -0.313932


 MOLECULE KIND INFORMATION


 All atoms are their own molecule, skipping detailed information


 TOTAL NUMBERS AND MAXIMUM NUMBERS

  Total number of            - Atomic kinds:                                   5
                             - Atoms:                                        578
                             - Shell sets:                                   578
                             - Shells:                                      2580
                             - Primitive Cartesian functions:               2930
                             - Cartesian basis functions:                   6774
                             - Spherical basis functions:                   6296

  Maximum angular momentum of- Orbital basis functions:                        3
                             - Local part of the GTH pseudopotential:          2
                             - Non-local part of the GTH pseudopotential:      4


 MODULE QUICKSTEP:  ATOMIC COORDINATES IN angstrom

  Atom  Kind  Element       X           Y           Z          Z(eff)       Mass

       1     1 C    6   11.858857   14.053603   13.736449      4.00      12.0107
       2     1 C    6   12.456451   12.890721   13.018013      4.00      12.0107
       3     1 C    6   11.704622   12.171498   12.076709      4.00      12.0107
       4     1 C    6   12.281056   11.109327   11.384345      4.00      12.0107
       5     1 C    6   13.621766   10.739903   11.611811      4.00      12.0107
       6     1 C    6   14.355112   11.443866   12.584831      4.00      12.0107
       7     1 C    6   13.782193   12.508847   13.276320      4.00      12.0107
       8     1 C    6   14.261265    9.649152   10.838496      4.00      12.0107
       9     1 C    6   14.256676    9.657060    9.416800      4.00      12.0107
      10     1 C    6   13.743712   10.759296    8.662918      4.00      12.0107
      11     1 C    6   49.126961   21.233180   13.874566      4.00      12.0107
      12     1 C    6   48.550184   22.401213   13.147496      4.00      12.0107
      13     1 C    6   49.300252   23.068588   12.166584      4.00      12.0107
      14     1 C    6   48.733331   24.107756   11.433393      4.00      12.0107
      15     1 C    6   47.402770   24.509324   11.661970      4.00      12.0107
      16     1 C    6   46.671765   23.860401   12.675405      4.00      12.0107
      17     1 C    6   47.234227   22.815486   13.404743      4.00      12.0107
      18     1 C    6   46.772482   25.587011   10.864705      4.00      12.0107
      19     1 C    6   46.761402   25.557404    9.442941      4.00      12.0107
      20     1 C    6   47.261440   24.442358    8.699446      4.00      12.0107
      21     1 C    6   14.860523    8.570648    8.703574      4.00      12.0107
      22     1 C    6   14.891838    8.597125   11.515184      4.00      12.0107
      23     1 C    6   49.113309   21.203426    2.150486      4.00      12.0107
      24     1 C    6   48.527892   22.364845    2.877667      4.00      12.0107
      25     1 C    6   49.267141   23.025584    3.870530      4.00      12.0107
      26     1 C    6   48.690817   24.060146    4.602006      4.00      12.0107
      27     1 C    6   47.360400   24.456884    4.363786      4.00      12.0107
      28     1 C    6   46.639958   23.811974    3.340291      4.00      12.0107
      29     1 C    6   47.213527   22.776071    2.608507      4.00      12.0107
      30     1 C    6   46.721917   25.531843    5.154807      4.00      12.0107
      31     1 C    6   46.733604   25.528212    6.576513      4.00      12.0107
      32     1 C    6   47.249127   24.429038    7.332895      4.00      12.0107
      33     1 C    6   40.634240   17.116535    7.329647      4.00      12.0107
      34     1 C    6   40.653188   17.154930    4.520593      4.00      12.0107
      35     1 C    6   11.883162   14.086655    2.290611      4.00      12.0107
      36     1 C    6   12.472670   12.910997    2.995062      4.00      12.0107
      37     1 C    6   11.715033   12.177393    3.920731      4.00      12.0107
      38     1 C    6   12.281704   11.094967    4.589141      4.00      12.0107
      39     1 C    6   13.620706   10.721717    4.357677      4.00      12.0107
      40     1 C    6   14.358889   11.437799    3.397449      4.00      12.0107
      41     1 C    6   13.793380   12.518961    2.724790      4.00      12.0107
      42     1 C    6   14.254265    9.624856    5.128001      4.00      12.0107
      43     1 C    6   14.252997    9.644783    6.549837      4.00      12.0107
      44     1 C    6   13.743226   10.753804    7.296873      4.00      12.0107
      45     1 C    6   22.512525    3.244644   13.747735      4.00      12.0107
      46     1 C    6   23.229057    4.349651   13.047790      4.00      12.0107
      47     1 C    6   24.226068    4.067691   12.102136      4.00      12.0107
      48     1 C    6   24.855541    5.105727   11.419801      4.00      12.0107
      49     1 C    6   24.504345    6.448505   11.663038      4.00      12.0107
      50     1 C    6   23.535375    6.722173   12.645566      4.00      12.0107
      51     1 C    6   22.901068    5.685700   13.326125      4.00      12.0107
      52     1 C    6   25.114106    7.552712   10.886164      4.00      12.0107
      53     1 C    6   25.085892    7.543725    9.464465      4.00      12.0107
      54     1 C    6   24.376678    6.548237    8.719885      4.00      12.0107
      55     1 C    6   38.303284   31.929711   13.843976      4.00      12.0107
      56     1 C    6   37.575699   30.839484   13.134476      4.00      12.0107
      57     1 C    6   36.618755   31.141363   12.153657      4.00      12.0107
      58     1 C    6   36.004786   30.119401   11.435128      4.00      12.0107
      59     1 C    6   36.333035   28.771001   11.676490      4.00      12.0107
      60     1 C    6   37.259826   28.476624   12.694087      4.00      12.0107
      61     1 C    6   37.878232   29.497234   13.411079      4.00      12.0107
      62     1 C    6   35.734013   27.678032   10.879122      4.00      12.0107
      63     1 C    6   35.767163   27.693059    9.458008      4.00      12.0107
      64     1 C    6   36.474245   28.695000    8.721212      4.00      12.0107
      65     1 C    6   25.716354    8.608015    8.742525      4.00      12.0107
      66     1 C    6   25.715258    8.626811   11.554810      4.00      12.0107
      67     1 C    6   38.329120   31.962695    2.161017      4.00      12.0107
      68     1 C    6   37.608143   30.889805    2.902690      4.00      12.0107
      69     1 C    6   36.683149   31.198539    3.911669      4.00      12.0107
      70     1 C    6   36.074620   30.179738    4.641819      4.00      12.0107
      71     1 C    6   36.376977   28.827409    4.385772      4.00      12.0107
      72     1 C    6   37.279052   28.528705    3.346408      4.00      12.0107
      73     1 C    6   37.890014   29.543948    2.617840      4.00      12.0107
      74     1 C    6   35.770779   27.727892    5.169863      4.00      12.0107
      75     1 C    6   35.785760   27.718836    6.591598      4.00      12.0107
      76     1 C    6   36.482875   28.707535    7.354711      4.00      12.0107
      77     1 C    6   46.135538   26.620818    7.286649      4.00      12.0107
      78     1 C    6   46.087907   26.580170    4.478758      4.00      12.0107
      79     1 C    6   22.460219    3.254957    2.262299      4.00      12.0107
      80     1 C    6   23.154358    4.362968    2.985863      4.00      12.0107
      81     1 C    6   24.156686    4.074899    3.925622      4.00      12.0107
      82     1 C    6   24.785725    5.103855    4.622014      4.00      12.0107
      83     1 C    6   24.432471    6.449825    4.400180      4.00      12.0107
      84     1 C    6   23.452867    6.731362    3.429355      4.00      12.0107
      85     1 C    6   22.818932    5.702452    2.733782      4.00      12.0107
      86     1 C    6   25.067399    7.546019    5.172948      4.00      12.0107
      87     1 C    6   25.062766    7.539929    6.595543      4.00      12.0107
      88     1 C    6   24.363732    6.547784    7.353281      4.00      12.0107
      89     1 C    6   26.623580   17.863853   13.780477      4.00      12.0107
      90     1 C    6   25.314470   17.905072   13.054830      4.00      12.0107
      91     1 C    6   25.060499   18.892894   12.090656      4.00      12.0107
      92     1 C    6   23.847446   18.912960   11.404491      4.00      12.0107
      93     1 C    6   22.852072   17.947498   11.659376      4.00      12.0107
      94     1 C    6   23.103052   16.981873   12.652437      4.00      12.0107
      95     1 C    6   24.317882   16.957214   13.336792      4.00      12.0107
      96     1 C    6   21.578747   17.931982   10.894975      4.00      12.0107
      97     1 C    6   21.577530   17.906844    9.472296      4.00      12.0107
      98     1 C    6   22.782513   17.781010    8.711094      4.00      12.0107
      99     1 C    6   34.441705   17.193634   13.919783      4.00      12.0107
     100     1 C    6   35.734299   17.143788   13.172911      4.00      12.0107
     101     1 C    6   35.939853   16.170429   12.183082      4.00      12.0107
     102     1 C    6   37.119359   16.155384   11.444633      4.00      12.0107
     103     1 C    6   38.125658   17.112126   11.678261      4.00      12.0107
     104     1 C    6   37.923192   18.066706   12.692677      4.00      12.0107
     105     1 C    6   36.739977   18.087463   13.427408      4.00      12.0107
     106     1 C    6   39.379312   17.118248   10.892371      4.00      12.0107
     107     1 C    6   39.374502   17.126519    9.471017      4.00      12.0107
     108     1 C    6   38.165875   17.232006    8.713040      4.00      12.0107
     109     1 C    6   20.330765   17.925205    8.763855      4.00      12.0107
     110     1 C    6   20.353600   17.937603   11.576979      4.00      12.0107
     111     1 C    6   34.474171   17.244960    2.187693      4.00      12.0107
     112     1 C    6   35.776117   17.169652    2.915914      4.00      12.0107
     113     1 C    6   35.999820   16.164997    3.870081      4.00      12.0107
     114     1 C    6   37.184893   16.141822    4.600412      4.00      12.0107
     115     1 C    6   38.175489   17.121803    4.392301      4.00      12.0107
     116     1 C    6   37.958271   18.100955    3.406514      4.00      12.0107
     117     1 C    6   36.770266   18.129321    2.680416      4.00      12.0107
     118     1 C    6   39.423102   17.134405    5.185915      4.00      12.0107
[...]
 flops    13 x    32 x    32         117042511872       0.0%    100.0%      0.0%
 flops    26 x     5 x   274         149142364800       0.0%    100.0%      0.0%
 flops     5 x    26 x   274         149446417120       0.0%    100.0%      0.0%
 flops    26 x     5 x   282         153496886400       0.0%    100.0%      0.0%
 flops     5 x    26 x   282         153809816160       0.0%    100.0%      0.0%
 flops     5 x     5 x   274         192070164000       0.0%    100.0%      0.0%
 flops     5 x     5 x   282         197678052000       0.0%    100.0%      0.0%
 flops    26 x    26 x   288         210504453120       0.0%    100.0%      0.0%
 flops    26 x    18 x    13         216458997768       0.0%    100.0%      0.0%
 flops    13 x    18 x    26         216458997768       0.0%    100.0%      0.0%
 flops     5 x    18 x    13         249459488460       0.0%    100.0%      0.0%
 flops    13 x    18 x     5         249459488460       0.0%    100.0%      0.0%
 flops   274 x   274 x   274         258575257680       0.0%    100.0%      0.0%
 flops   274 x   274 x   288         271787132160       0.0%    100.0%      0.0%
 flops   274 x   288 x   274         271787132160       0.0%    100.0%      0.0%
 flops   288 x   274 x   274         271787132160       0.0%    100.0%      0.0%
 flops   282 x   282 x   282         278931702384       0.0%    100.0%      0.0%
 flops   282 x   282 x   288         284866419456       0.0%    100.0%      0.0%
 flops   282 x   288 x   282         284866419456       0.0%    100.0%      0.0%
 flops   288 x   282 x   282         284866419456       0.0%    100.0%      0.0%
 flops   288 x   288 x   274         285674065920       0.0%    100.0%      0.0%
 flops   274 x   288 x   288         285674065920       0.0%    100.0%      0.0%
 flops   288 x   274 x   288         285674065920       0.0%    100.0%      0.0%
 flops   288 x   288 x   282         290927407104       0.0%    100.0%      0.0%
 flops   282 x   288 x   288         290927407104       0.0%    100.0%      0.0%
 flops   288 x   282 x   288         290927407104       0.0%    100.0%      0.0%
 flops    26 x    26 x    13         301172229800       0.0%    100.0%      0.0%
 flops    13 x    26 x    26         302342932008       0.0%    100.0%      0.0%
 flops    26 x     5 x   288         313525555200       0.0%    100.0%      0.0%
 flops     5 x    26 x   288         314164730880       0.0%    100.0%      0.0%
 flops     5 x    26 x    13         347087772200       0.0%    100.0%      0.0%
 flops    13 x    26 x     5         347087772200       0.0%    100.0%      0.0%
 flops    26 x    26 x   256         374230138880       0.0%    100.0%      0.0%
 flops     5 x     5 x   288         403767936000       0.0%    100.0%      0.0%
 flops   256 x   274 x   274         483177123840       0.0%    100.0%      0.0%
 flops   274 x   256 x   274         483177123840       0.0%    100.0%      0.0%
 flops   274 x   274 x   256         483177123840       0.0%    100.0%      0.0%
 flops   256 x   282 x   282         506429190144       0.0%    100.0%      0.0%
 flops   282 x   256 x   282         506429190144       0.0%    100.0%      0.0%
 flops   282 x   282 x   256         506429190144       0.0%    100.0%      0.0%
 flops   256 x   274 x   288         507865006080       0.0%    100.0%      0.0%
 flops   256 x   288 x   274         507865006080       0.0%    100.0%      0.0%
 flops   274 x   256 x   288         507865006080       0.0%    100.0%      0.0%
 flops   274 x   288 x   256         507865006080       0.0%    100.0%      0.0%
 flops   288 x   256 x   274         507865006080       0.0%    100.0%      0.0%
 flops   288 x   274 x   256         507865006080       0.0%    100.0%      0.0%
 flops   256 x   282 x   288         517204279296       0.0%    100.0%      0.0%
 flops   256 x   288 x   282         517204279296       0.0%    100.0%      0.0%
 flops   282 x   256 x   288         517204279296       0.0%    100.0%      0.0%
 flops   282 x   288 x   256         517204279296       0.0%    100.0%      0.0%
 flops   288 x   256 x   282         517204279296       0.0%    100.0%      0.0%
 flops   288 x   282 x   256         517204279296       0.0%    100.0%      0.0%
 flops    26 x     5 x   256         557378764800       0.0%    100.0%      0.0%
 flops     5 x    26 x   256         558515077120       0.0%    100.0%      0.0%
 flops   288 x   288 x   288         597387902976       0.0%    100.0%      0.0%
 flops    26 x    13 x   274         714756263000       0.0%    100.0%      0.0%
 flops     5 x     5 x   256         717809664000       0.0%    100.0%      0.0%
 flops    13 x    26 x   274         720318910168       0.0%    100.0%      0.0%
 flops    26 x    13 x   282         735625059000       0.0%    100.0%      0.0%
 flops    13 x    26 x   282         741350119224       0.0%    100.0%      0.0%
 flops     5 x    13 x   274         826625895420       0.0%    100.0%      0.0%
 flops    13 x     5 x   274         827235531720       0.0%    100.0%      0.0%
 flops     5 x    13 x   282         850760958060       0.0%    100.0%      0.0%
 flops    13 x     5 x   282         851388393960       0.0%    100.0%      0.0%
 flops   256 x   256 x   274         902871121920       0.0%    100.0%      0.0%
 flops   256 x   274 x   256         902871121920       0.0%    100.0%      0.0%
 flops   274 x   256 x   256         902871121920       0.0%    100.0%      0.0%
 flops   256 x   256 x   282         919474274304       0.0%    100.0%      0.0%
 flops   256 x   282 x   256         919474274304       0.0%    100.0%      0.0%
 flops   282 x   256 x   256         919474274304       0.0%    100.0%      0.0%
 flops    13 x    18 x    13        1035006125400       0.0%    100.0%      0.0%
 flops   288 x   288 x   256        1062022938624       0.0%    100.0%      0.0%
 flops   256 x   288 x   288        1062022938624       0.0%    100.0%      0.0%
 flops   288 x   256 x   288        1062022938624       0.0%    100.0%      0.0%
 flops    13 x    26 x    13        1440065375424       0.0%    100.0%      0.0%
 flops    26 x    13 x   288        1502553312000       0.0%    100.0%      0.0%
 flops    13 x    26 x   288        1514247052032       0.0%    100.0%      0.0%
 flops     5 x    13 x   288        1737724510080       0.0%    100.0%      0.0%
 flops    13 x     5 x   288        1739006081280       0.0%    100.0%      0.0%
 flops   256 x   256 x   288        1888040779776       0.0%    100.0%      0.0%
 flops   256 x   288 x   256        1888040779776       0.0%    100.0%      0.0%
 flops   288 x   256 x   256        1888040779776       0.0%    100.0%      0.0%
 flops    26 x    13 x   256        2671205888000       0.0%    100.0%      0.0%
 flops    13 x    26 x   256        2691994759168       0.0%    100.0%      0.0%
 flops     5 x    13 x   256        3089288017920       0.0%    100.0%      0.0%
 flops    13 x     5 x   256        3091566366720       0.0%    100.0%      0.0%
 flops    26 x    32 x    26        3175594126848       0.0%    100.0%      0.0%
 flops   256 x   256 x   256        3356516941824       0.0%    100.0%      0.0%
 flops    13 x    13 x   274        3467483576700       0.0%    100.0%      0.0%
 flops    13 x    13 x   282        3568723973100       0.0%    100.0%      0.0%
 flops   274 x   274 x  1574        4641702830720       0.0%    100.0%      0.0%
 flops   274 x   288 x  1574        4878870128640       0.0%    100.0%      0.0%
 flops   288 x   274 x  1574        4878870128640       0.0%    100.0%      0.0%
 flops   282 x   282 x  1574        4916708081280       0.0%    100.0%      0.0%
 flops   282 x   288 x  1574        5021318891520       0.0%    100.0%      0.0%
 flops   288 x   282 x  1574        5021318891520       0.0%    100.0%      0.0%
 flops    26 x    32 x     5        5187296125440       0.0%    100.0%      0.0%
 flops     5 x    32 x    26        5187296125440       0.0%    100.0%      0.0%
 flops  1574 x   274 x   274        6156164731904       0.0%    100.0%      0.0%
 flops  1574 x   288 x   274        6470713294848       0.0%    100.0%      0.0%
 flops  1574 x   274 x   288        6470713294848       0.0%    100.0%      0.0%
 flops  1574 x   282 x   282        6520896746496       0.0%    100.0%      0.0%
 flops     5 x    32 x     5        6577580908800       0.0%    100.0%      0.0%
 flops  1574 x   288 x   282        6659639230464       0.0%    100.0%      0.0%
 flops  1574 x   282 x   288        6659639230464       0.0%    100.0%      0.0%
 flops    13 x    13 x   288        7289308540800       0.0%    100.0%      0.0%
 flops   256 x   274 x  1574        8673546895360       0.0%    100.0%      0.0%
 flops   274 x   256 x  1574        8673546895360       0.0%    100.0%      0.0%
 flops   256 x   282 x  1574        8926789140480       0.0%    100.0%      0.0%
 flops   282 x   256 x  1574        8926789140480       0.0%    100.0%      0.0%
 flops   288 x   288 x  1574       10256310927360       0.0%    100.0%      0.0%
 flops  1574 x   256 x   274       11503490301952       0.0%    100.0%      0.0%
 flops  1574 x   274 x   256       11503490301952       0.0%    100.0%      0.0%
 flops  1574 x   256 x   282       11839358631936       0.0%    100.0%      0.0%
 flops  1574 x   282 x   256       11839358631936       0.0%    100.0%      0.0%
 flops    13 x    13 x   256       12958770739200       0.0%    100.0%      0.0%
 flops  1574 x   288 x   288       13602667364352       0.0%    100.0%      0.0%
 flops   256 x   288 x  1574       18233441648640       0.0%    100.0%      0.0%
 flops   288 x   256 x  1574       18233441648640       0.0%    100.0%      0.0%
 flops  1574 x   288 x   256       24182519758848       0.0%    100.0%      0.0%
 flops  1574 x   256 x   288       24182519758848       0.0%    100.0%      0.0%
 flops    26 x    32 x    13       24931153817856       0.0%    100.0%      0.0%
 flops    13 x    32 x    26       24931153817856       0.0%    100.0%      0.0%
 flops    13 x    32 x     5       28732060019520       0.0%    100.0%      0.0%
 flops     5 x    32 x    13       28732060019520       0.0%    100.0%      0.0%
 flops   256 x   256 x  1574       32415007375360       0.0%    100.0%      0.0%
 flops  1574 x   256 x   256       42991146237952       0.0%    100.0%      0.0%
 flops  1574 x   274 x  1574       50526557255168       0.0%    100.0%      0.0%
 flops  1574 x   282 x  1574       52001785204224       0.0%    100.0%      0.0%
 flops  1574 x   288 x  1574      106216412332032       0.0%    100.0%      0.0%
 flops    13 x    32 x    13      119209168450944       0.0%    100.0%      0.0%
 flops  1574 x   256 x  1574      188829177479168       0.0%    100.0%      0.0%
 flops inhomo. stacks                           0       0.0%      0.0%      0.0%
 flops total                         1.071361E+15       0.0%    100.0%      0.0%
 flops max/rank                     72.036482E+12       0.0%    100.0%      0.0%
 matmuls inhomo. stacks                         0       0.0%      0.0%      0.0%
 matmuls total                        34448900804       0.0%    100.0%      0.0%
 number of processed stacks              44998006       0.0%    100.0%      0.0%
 average stack size                                     0.0     765.6       0.0
 marketing flops                     1.966325E+15
 -------------------------------------------------------------------------------
 # multiplications                          54683
 max memory usage/rank               2.320646E+09
 # max total images/rank                        1
 # max 3D layers                                1
 # MPI messages exchanged                 5249568
 MPI messages size (bytes):
  total size                        17.393860E+12
  min size                           0.000000E+00
  max size                          19.819808E+06
  average size                       3.313389E+06
 MPI breakdown and total messages size (bytes):
             size <=      128               47784                        0
       128 < size <=     8192                   0                        0
      8192 < size <=    32768                   0                        0
     32768 < size <=   131072                4344                297928896
    131072 < size <=  4194304             4510032           10170546266496
   4194304 < size <= 16777216              464112            2802992766048
  16777216 < size                          223296            4425683847168
 -------------------------------------------------------------------------------
 -                                                                             -
 -                      DBCSR MESSAGE PASSING PERFORMANCE                      -
 -                                                                             -
 -------------------------------------------------------------------------------
 ROUTINE             CALLS      AVE VOLUME [Bytes]
 MP_Group             7418
 MP_Bcast              148                     12.
 MP_Allreduce       270448                     31.
 MP_Alltoall        267481                 810718.
 MP_Wait           2624784
 MP_ISend           873480                1295782.
 MP_IRecv           873480                1283729.
 MP_Memory         1993610
 -------------------------------------------------------------------------------

 MEMORY| Estimated peak process memory [MiB]                                2214

 -------------------------------------------------------------------------------
 ----                             MULTIGRID INFO                            ----
 -------------------------------------------------------------------------------
 count for grid        1:        1657680          cutoff [a.u.]          180.00
 count for grid        2:         393520          cutoff [a.u.]           60.00
 count for grid        3:         224320          cutoff [a.u.]           20.00
 count for grid        4:          22240          cutoff [a.u.]            6.67
 count for grid        5:            640          cutoff [a.u.]            2.22
 total gridlevel count  :        2298400

 -------------------------------------------------------------------------------
 -                                                                             -
 -                         MESSAGE PASSING PERFORMANCE                         -
 -                                                                             -
 -------------------------------------------------------------------------------

 ROUTINE             CALLS      AVE VOLUME [Bytes]
 MP_Group                6
 MP_Bcast             1235                6812583.
 MP_Allreduce           91                  18149.
 MP_Sync                 5
 -------------------------------------------------------------------------------


 -------------------------------------------------------------------------------
 -                                                                             -
 -                           R E F E R E N C E S                               -
 -                                                                             -
 -------------------------------------------------------------------------------
 
 CP2K version 7.1, the CP2K developers group (2019).
 CP2K is freely available from https://www.cp2k.org/ .

 Schuett, Ole; Messmer, Peter; Hutter, Juerg; VandeVondele, Joost. 
 Electronic Structure Calculations on Graphics Processing Units, John
 Wiley & Sons, Ltd, 173-190 (2016). 
 GPU-Accelerated Sparse Matrix-Matrix Multiplication for
 Linear Scaling Density Functional Theory.
 https://dx.doi.org/10.1002/9781118670712.ch8

 Borstnik, U; VandeVondele, J; Weber, V; Hutter, J. 
 PARALLEL COMPUTING, 40 (5-6), 47-58 (2014). 
 Sparse matrix multiplication: The distributed block-compressed sparse
 row library.
 https://dx.doi.org/10.1016/j.parco.2014.03.012

 Hutter, J; Iannuzzi, M; Schiffmann, F; VandeVondele, J. 
 WIREs Comput Mol Sci., 4 (1), 15-25 (2014). 
 CP2K: atomistic simulations of condensed matter systems.
 https://dx.doi.org/10.1002/wcms.1159

 Grimme, S; Ehrlich, S; Goerigk, L. 
 JOURNAL OF COMPUTATIONAL CHEMISTRY, 32, 1456 (2011). 
 Effect of the damping function in dispersion corrected density functional theory.
 https://dx.doi.org/10.1002/jcc.21759

 Grimme, S; Antony, J; Ehrlich, S; Krieg, H. 
 JOURNAL OF CHEMICAL PHYSICS, 132 (15), 154104 (2010). 
 A consistent and accurate ab initio parametrization of density
 functional dispersion correction (DFT-D) for the 94 elements H-Pu.
 https://dx.doi.org/10.1063/1.3382344

 VandeVondele, J; Hutter, J. 
 JOURNAL OF CHEMICAL PHYSICS, 127 (11), 114105 (2007). 
 Gaussian basis sets for accurate calculations on molecular systems in
 gas and condensed phases.
 https://dx.doi.org/10.1063/1.2770708

 Krack, M. 
 THEORETICAL CHEMISTRY ACCOUNTS, 114 (1-3), 145-152 (2005). 
 Pseudopotentials for H to Kr optimized for gradient-corrected
 exchange-correlation functionals.
 https://dx.doi.org/10.1007/s00214-005-0655-y

 VandeVondele, J; Krack, M; Mohamed, F; Parrinello, M; Chassaing, T;
 Hutter, J. COMPUTER PHYSICS COMMUNICATIONS, 167 (2), 103-128 (2005). 
 QUICKSTEP: Fast and accurate density functional calculations using a
 mixed Gaussian and plane waves approach.
 https://dx.doi.org/10.1016/j.cpc.2004.12.014

 Frigo, M; Johnson, SG. 
 PROCEEDINGS OF THE IEEE, 93 (2), 216-231 (2005). 
 The design and implementation of FFTW3.
 https://dx.doi.org/10.1109/JPROC.2004.840301

 Kolafa, J. 
 JOURNAL OF COMPUTATIONAL CHEMISTRY, 25 (3), 335-342 (2004). 
 Time-reversible always stable predictor-corrector method for molecular dynamics of polarizable molecules.
 https://dx.doi.org/10.1002/jcc.10385

 VandeVondele, J; Hutter, J. 
 JOURNAL OF CHEMICAL PHYSICS, 118 (10), 4365-4369 (2003). 
 An efficient orbital transformation method for electronic structure
 calculations.
 https://dx.doi.org/10.1063/1.1543154

 Hartwigsen, C; Goedecker, S; Hutter, J. 
 PHYSICAL REVIEW B, 58 (7), 3641-3662 (1998). 
 Relativistic separable dual-space Gaussian pseudopotentials from H to Rn.
 https://dx.doi.org/10.1103/PhysRevB.58.3641

 Lippert, G; Hutter, J; Parrinello, M. 
 MOLECULAR PHYSICS, 92 (3), 477-487 (1997). 
 A hybrid Gaussian and plane wave density functional scheme.
 https://dx.doi.org/10.1080/002689797170220

 Perdew, JP; Burke, K; Ernzerhof, M. 
 PHYSICAL REVIEW LETTERS, 77 (18), 3865-3868 (1996). 
 Generalized gradient approximation made simple.
 https://dx.doi.org/10.1103/PhysRevLett.77.3865

 Goedecker, S; Teter, M; Hutter, J. 
 PHYSICAL REVIEW B, 54 (3), 1703-1710 (1996). 
 Separable dual-space Gaussian pseudopotentials.
 https://dx.doi.org/10.1103/PhysRevB.54.1703


 -------------------------------------------------------------------------------
 -                                                                             -
 -                                T I M I N G                                  -
 -                                                                             -
 -------------------------------------------------------------------------------
 SUBROUTINE                       CALLS  ASD         SELF TIME        TOTAL TIME
                                MAXIMUM       AVERAGE  MAXIMUM  AVERAGE  MAXIMUM
 CP2K                                 1  1.0     0.01     0.01 81006.86 81007.02
 vb_anal                              1  2.0 81002.39 81002.55 81004.68 81004.84
 -------------------------------------------------------------------------------

 The number of warnings for this run is : 0
 
 -------------------------------------------------------------------------------
  **** **** ******  **  PROGRAM ENDED AT                 2021-11-27 17:49:56.806
 ***** ** ***  *** **   PROGRAM RAN ON             node1905.palmetto.clemson.edu
 **    ****   ******    PROGRAM RAN BY                                   svicchi
 ***** **    ** ** **   PROGRAM PROCESS ID                               3545585
  **** **  *******  **  PROGRAM STOPPED IN  /scratch2/svicchi/CP2K-4064449.pbs02
