          1172
 i =      275, E =     -4847.8861983387
  C        11.8583426587       14.0536271269       13.7364982531
        C              11.8583426587              14.0536271269         29.726289240937973
  C        12.4558130744       12.8904750024       13.0182435901
        C              12.4558130744              12.8904750024         29.008034577937973
  C        11.7042233718       12.1719224740       12.0762414083
        C              11.7042233718              12.1719224740          28.06603239613797
  C        12.2805172318       11.1096579509       11.3838665304
        C              12.2805172318              11.1096579509         27.373657518237973
  C        13.6209062023       10.7394422506       11.6119372014
        C              13.6209062023              10.7394422506         27.601728189237974
  C        14.3538880979       11.4425413129       12.5858941329
        C              14.3538880979              11.4425413129         28.575685120737973
  C        13.7810808170       12.5075480818       13.2774226490
        C              13.7810808170              12.5075480818         29.267213636837973
  C        14.2605453291        9.6488506175       10.8385279151
        C              14.2605453291               9.6488506175         26.828318902937973
  C        14.2561429840        9.6568877421        9.4168178334
        C              14.2561429840               9.6568877421         25.406608821237974
  C        13.7428252719       10.7589211068        8.6628795850
        C              13.7428252719              10.7589211068         24.652670572837973
  C        49.1265757649       21.2332323644       13.8745987156
        C              49.1265757649              21.2332323644         29.864389703437972
  C        48.5498055162       22.4010498728       13.1474261581
        C              48.5498055162              22.4010498728         29.137217145937974
  C        49.3000514165       23.0688566378       12.1669178195
        C              49.3000514165              23.0688566378          28.15670880733797
  C        48.7330808514       24.1079474936       11.4336980102
        C              48.7330808514              24.1079474936         27.423488998037975
  C        47.4023012011       24.5090532647       11.6618603565
        C              47.4023012011              24.5090532647          27.65165134433797
  C        46.6710135009       23.8595450411       12.6747021591
        C              46.6710135009              23.8595450411          28.66449314693797
  C        47.2335081850       22.8146700587       13.4040693387
        C              47.2335081850              22.8146700587         29.393860326537972
  C        46.7721635071       25.5868388148       10.8646053330
        C              46.7721635071              25.5868388148          26.85439632083797
  C        46.7613598906       25.5573594060        9.4428447300
        C              46.7613598906              25.5573594060          25.43263571783797
  C        47.2612454187       24.4422208421        8.6993872867
        C              47.2612454187              24.4422208421         24.689178274537973
  C        14.8603232344        8.5706518387        8.7035909603
        C              14.8603232344               8.5706518387         24.693381948137972
  C        14.8912340004        8.5968536908       11.5151983823
        C              14.8912340004               8.5968536908          27.50498937013797
  C        49.1130057303       21.2033758470        2.1504388556
        C              49.1130057303              21.2033758470          18.14022984343797
  C        48.5275665228       22.3645685054        2.8777469305
        C              48.5275665228              22.3645685054         18.867537918337973
  C        49.2670740109       23.0259263973        3.8700291756
        C              49.2670740109              23.0259263973         19.859820163437973
  C        48.6906756196       24.0604398816        4.6014800904
        C              48.6906756196              24.0604398816         20.591271078237973
  C        47.3599611647       24.4565366765        4.3638105755
        C              47.3599611647              24.4565366765          20.35360156333797
  C        46.6391472400       23.8108173716        3.3411086483
        C              46.6391472400              23.8108173716          19.33089963613797
  C        47.2127480738       22.7749059169        2.6093611742
        C              47.2127480738              22.7749059169         18.599152162037974
  C        46.7216214873       25.5316281810        5.1547742450
        C              46.7216214873              25.5316281810         21.144565232837973
  C        46.7335904667       25.5281432717        6.5764659717
        C              46.7335904667              25.5281432717         22.566256959537974
  C        47.2489710151       24.4288982645        7.3328361228
        C              47.2489710151              24.4288982645         23.322627110637974
  C        40.6227250251       17.1358897487        7.3082797613
        C              40.6227250251              17.1358897487          23.29807074913797
  C        40.6374843414       17.1290942125        4.4989428827
        C              40.6374843414              17.1290942125          20.48873387053797
  C        11.8827779852       14.0865685424        2.2905074067
        C              11.8827779852              14.0865685424         18.280298394537972
  C        12.4720780753       12.9105356877        2.9946500602
        C              12.4720780753              12.9105356877         18.984441048037972
  C        11.7145530170       12.1774669543        3.9208363386
        C              11.7145530170              12.1774669543          19.91062732643797
  C        12.2810732744       11.0949813755        4.5893176992
        C              12.2810732744              11.0949813755         20.579108687037973
  C        13.6198273654       10.7210943198        4.3574459788
        C              13.6198273654              10.7210943198         20.347236966637972
  C        14.3577448236       11.4364334863        3.3964222039
        C              14.3577448236              11.4364334863         19.386213191737973
  C        13.7923798599       12.5176077550        2.7236770524
        C              13.7923798599              12.5176077550         18.713468040237974
  C        14.2535399108        9.6244442030        5.1279337547
        C              14.2535399108               9.6244442030         21.117724742537973
  C        14.2524164617        9.6445184070        6.5497786426
        C              14.2524164617               9.6445184070         22.539569630437974
  C        13.7423307527       10.7533823227        7.2968326852
        C              13.7423307527              10.7533823227         23.286623673037973
  C        22.5120301857        3.2448348315       13.7481853597
        C              22.5120301857               3.2448348315         29.737976347537973
  C        23.2266652040        4.3514974298       13.0494383311
        C              23.2266652040               4.3514974298          29.03922931893797
  C        24.2251674979        4.0734571819       12.1042901880
        C              24.2251674979               4.0734571819          28.09408117583797
  C        24.8515477528        5.1142690563       11.4232663022
        C              24.8515477528               5.1142690563         27.413057290037973
  C        24.4952329886        6.4555847876       11.6671571328
        C              24.4952329886               6.4555847876          27.65694812063797
  C        23.5249872945        6.7252482336       12.6494560300
        C              23.5249872945               6.7252482336         28.639247017837974
  C        22.8940768837        5.6862092587       13.3288936638
        C              22.8940768837               5.6862092587         29.318684651637973
  C        25.0999366485        7.5628332646       10.8910854133
        C              25.0999366485               7.5628332646         26.880876401137975
  C        25.0709598590        7.5555968750        9.4695028001
        C              25.0709598590               7.5555968750         25.459293787937973
  C        24.3667031150        6.5564031711        8.7251893752
        C              24.3667031150               6.5564031711         24.714980363037974
  C        38.3027480828       31.9292560208       13.8439164544
        C              38.3027480828              31.9292560208         29.833707442237973
  C        37.5738258865       30.8391607931       13.1346900448
        C              37.5738258865              30.8391607931         29.124481032637973
  C        36.6160881258       31.1415884051       12.1546955049
        C              36.6160881258              31.1415884051         28.144486492737972
  C        36.0002433743       30.1201808776       11.4367379910
        C              36.0002433743              30.1201808776         27.426528978837972
  C        36.3271054921       28.7712745374       11.6774889406
        C              36.3271054921              28.7712745374          27.66727992843797
  C        37.2548581805       28.4763683720       12.6941827989
        C              37.2548581805              28.4763683720         28.683973786737972
  C        37.8751018056       29.4964552834       13.4106606845
        C              37.8751018056              29.4964552834         29.400451672337972
  C        35.7267097647       27.6783824964       10.8802948848
        C              35.7267097647              27.6783824964         26.870085872637972
  C        35.7609547984       27.6917613996        9.4590422026
        C              35.7609547984              27.6917613996         25.448833190437973
  C        36.4679371611       28.6936465862        8.7221956606
        C              36.4679371611              28.6936465862          24.71198664843797
  C        25.6951651357        8.6237874227        8.7478171214
        C              25.6951651357               8.6237874227         24.737608109237975
  C        25.6979595149        8.6382150487       11.5600886195
        C              25.6979595149               8.6382150487          27.54987960733797
  C        38.3290707734       31.9618142895        2.1615922019
        C              38.3290707734              31.9618142895         18.151383189737974
  C        37.6089440462       30.8878229606        2.9036459673
        C              37.6089440462              30.8878229606          18.89343695513797
  C        36.6818071347       31.1947936929        3.9112919452
        C              36.6818071347              31.1947936929         19.901082933037973
  C        36.0739426297       30.1750054768        4.6409671898
        C              36.0739426297              30.1750054768         20.630758177637972
  C        36.3788318507       28.8228193308        4.3864210595
        C              36.3788318507              28.8228193308         20.376212047337972
  C        37.2834432586       28.5258775518        3.3486367028
        C              37.2834432586              28.5258775518          19.33842769063797
  C        37.8934987661       29.5420978231        2.6203372830
        C              37.8934987661              29.5420978231         18.610128270837972
  C        35.7731479057       27.7222802470        5.1703807515
        C              35.7731479057              27.7222802470         21.160171739337972
  C        35.7847469946       27.7141314708        6.5923637192
        C              35.7847469946              27.7141314708         22.582154707037972
  C        36.4788465671       28.7047103970        7.3556751909
        C              36.4788465671              28.7047103970         23.345466178737972
  C        46.1357699577       26.6208975673        7.2865622920
        C              46.1357699577              26.6208975673         23.276353279837974
  C        46.0875962431       26.5798964673        4.4786689190
        C              46.0875962431              26.5798964673          20.46845990683797
  C        22.4598650064        3.2556688001        2.2633513251
        C              22.4598650064               3.2556688001          18.25314231293797
  C        23.1518322702        4.3647343064        2.9880857753
        C              23.1518322702               4.3647343064          18.97787676313797
  C        24.1524671865        4.0791202150        3.9305061851
        C              24.1524671865               4.0791202150          19.92029717293797
  C        24.7787239348        5.1095474828        4.6276778110
        C              24.7787239348               5.1095474828         20.617468798837972
  C        24.4245474307        6.4551851341        4.4044994943
        C              24.4245474307               6.4551851341         20.394290482137972
  C        23.4466360506        6.7341053309        3.4309728668
        C              23.4466360506               6.7341053309         19.420763854637972
  C        22.8155706157        5.7038772217        2.7346452500
        C              22.8155706157               5.7038772217          18.72443623783797
  C        25.0553372631        7.5538598352        5.1778747166
        C              25.0553372631               7.5538598352         21.167665704437972
  C        25.0489789146        7.5497592925        6.6006488899
        C              25.0489789146               7.5497592925          22.59043987773797
  C        24.3543459804        6.5548149062        7.3585696285
        C              24.3543459804               6.5548149062          23.34836061633797
  C        26.6239853372       17.8622102834       13.7824919676
        C              26.6239853372              17.8622102834         29.772282955437973
  C        25.3146556023       17.9105553409       13.0580820795
        C              25.3146556023              17.9105553409         29.047873067337974
  C        25.0200788745       18.9561995920       12.1656761615
        C              25.0200788745              18.9561995920         28.155467149337973
  C        23.8102508463       18.9698439034       11.4705088266
        C              23.8102508463              18.9698439034         27.460299814437974
  C        22.8551919184       17.9502364459       11.6556650752
        C              22.8551919184              17.9502364459         27.645456063037972
  C        23.1444259363       16.9283281947       12.5795132795
        C              23.1444259363              16.9283281947         28.569304267337973
  C        24.3577187810       16.9034746019       13.2655935400
        C              24.3577187810              16.9034746019         29.255384527837972
  C        21.5805547404       17.9387456464       10.8915917769
        C              21.5805547404              17.9387456464          26.88138276473797
  C        21.5832435891       17.9301788706        9.4697185823
        C              21.5832435891              17.9301788706         25.459509570137975
  C        22.7912852496       17.8276360421        8.7097107748
        C              22.7912852496              17.8276360421         24.699501762637972
  C        34.4199671060       17.2243611012       13.8712080343
        C              34.4199671060              17.2243611012         29.860999022137975
  C        35.7132607039       17.1706278587       13.1338605680
        C              35.7132607039              17.1706278587         29.123651555837974
  C        35.9089588667       16.2252839793       12.1149355509
        C              35.9089588667              16.2252839793          28.10472653873797
  C        37.0963837420       16.2097293008       11.3894609074
        C              37.0963837420              16.2097293008          27.37925189523797
  C        38.1186498679       17.1410661071       11.6584969398
        C              38.1186498679              17.1410661071         27.648287927637973
  C        37.9249871620       18.0654725439       12.7030577966
        C              37.9249871620              18.0654725439          28.69284878443797
  C        36.7368166864       18.0843883514       13.4290262219
        C              36.7368166864              18.0843883514         29.418817209737973
  C        39.3738936844       17.1539427115       10.8741747418
        C              39.3738936844              17.1539427115          26.86396572963797
  C        39.3681496319       17.1715006178        9.4518676048
        C              39.3681496319              17.1715006178          25.44165859263797
  C        38.1616551025       17.2981658080        8.6936230508
        C              38.1616551025              17.2981658080          24.68341403863797
  C        20.3357474546       17.9394980634        8.7622101262
        C              20.3357474546              17.9394980634         24.752001114037974
  C        20.3573694567       17.9308338256       11.5761573287
        C              20.3573694567              17.9308338256         27.565948316537973
  C        34.4491616037       17.2346865212        2.1869321737
        C              34.4491616037              17.2346865212          18.17672316153797
  C        35.7530704994       17.1302650882        2.8995030047
        C              35.7530704994              17.1302650882         18.889293992537972
  C        35.9525573397       16.1688885805        3.9021470122
        C              35.9525573397              16.1688885805          19.89193800003797
  C        37.1426164727       16.1547047375        4.6261701920
        C              37.1426164727              16.1547047375         20.615961179837974
  C        38.1594943794       17.0931759709        4.3673990836
        C              38.1594943794              17.0931759709         20.357190071437973
  C        37.9672734299       18.0228456352        3.3271003707
        C              37.9672734299              18.0228456352         19.316891358537973
  C        36.7770975481       18.0469075501        2.6073818881
        C              36.7770975481              18.0469075501          18.59717287593797
  C        39.4061053626       17.1224531346        5.1639162340
        C              39.4061053626              17.1224531346         21.153707221837973
  C        39.3847987406       17.1530689963        6.5853996396
        C              39.3847987406              17.1530689963         22.575190627437973
  C        38.1688677769       17.2849438122        7.3271843100
        C              38.1688677769              17.2849438122          23.31697529783797
  C        35.1552604279       26.6341508309        7.2961647529
        C              35.1552604279              26.6341508309         23.285955740737972
  C        35.1826629038       26.6520108273        4.4871878462
        C              35.1826629038              26.6520108273         20.476978834037972
  C        26.5694491724       17.8251195764        2.3298054185
        C              26.5694491724              17.8251195764         18.319596406337972
  C        25.2547816486       17.8756189037        3.0328893453
        C              25.2547816486              17.8756189037         19.022680333137973
  C        24.9846262287       18.8935323155        3.9598915278
        C              24.9846262287              18.8935323155         19.949682515637974
  C        23.7672593139       18.9220649294        4.6338323249
        C              23.7672593139              18.9220649294         20.623623312737973
  C        22.7913554204       17.9319860443        4.4046245693
        C              22.7913554204              17.9319860443          20.39441555713797
  C        23.0547148492       16.9390736579        3.4436597208
        C              23.0547148492              16.9390736579         19.433450708637974
  C        24.2726895049       16.9088567034        2.7674790643
        C              24.2726895049              16.9088567034         18.757270052137972
  C        21.5295214577       17.9146720797        5.1805661349
        C              21.5295214577              17.9146720797         21.170357122737972
  C        21.5564198146       17.9139628407        6.6021683235
        C              21.5564198146              17.9139628407         22.591959311337973
  C        22.7775053725       17.8175527211        7.3431914207
        C              22.7775053725              17.8175527211         23.332982408537973
  C        14.0462053584       17.8280606089        2.2945564195
        C              14.0462053584              17.8280606089          18.28434740733797
  C        15.3506477464       17.8835729899        3.0216976886
        C              15.3506477464              17.8835729899         19.011488676437974
  C        15.6070960894       18.8856477358        3.9704626717
        C              15.6070960894              18.8856477358         19.960253659537972
  C        16.8160330035       18.9059471766        4.6637140146
        C              16.8160330035              18.9059471766         20.653505002437974
  C        17.8030817790       17.9270683433        4.4302235467
        C              17.8030817790              17.9270683433         20.420014534537973
  C        17.5510337483       16.9485042565        3.4501435888
        C              17.5510337483              16.9485042565         19.439934576637974
  C        16.3413985005       16.9236212482        2.7586485875
        C              16.3413985005              16.9236212482         18.748439575337972
  C        19.0732388366       17.9123671485        5.1980405475
        C              19.0732388366              17.9123671485          21.18783153533797
  C        19.0742456282       17.9110593821        6.6204362081
        C              19.0742456282              17.9110593821         22.610227195937973
  C        17.8682897664       17.8059171546        7.3824528573
        C              17.8682897664              17.8059171546         23.372243845137973
  C        46.8036161169       17.2168242887        2.1619301309
        C              46.8036161169              17.2168242887         18.151721118737974
  C        45.5116543175       17.1512108948        2.9018946701
        C              45.5116543175              17.1512108948         18.891685657937973
  C        45.3076558382       16.1778955212        3.8923243235
        C              45.3076558382              16.1778955212         19.882115311337973
  C        44.1239954519       16.1586601449        4.6249786126
        C              44.1239954519              16.1586601449         20.614769600437974
  C        43.1145268051       17.1122287821        4.3887192819
        C              43.1145268051              17.1122287821         20.378510269737973
  C        43.3148543576       18.0629247204        3.3696022378
        C              43.3148543576              18.0629247204         19.359393225637973
  C        44.4994109312       18.0867501121        2.6383634072
        C              44.4994109312              18.0867501121         18.628154395037974
  C        41.8616488845       17.1262925065        5.1770918504
        C              41.8616488845              17.1262925065         21.166882838237974
  C        41.8689098605       17.1415859338        6.5988247218
        C              41.8689098605              17.1415859338          22.58861570963797
  C        43.0781685222       17.2444880839        7.3558604527
        C              43.0781685222              17.2444880839          23.34565144053797
  C        20.3217247447       17.9307241602        7.3275687351
        C              20.3217247447              17.9307241602         23.317359722937972
  C        20.2970171518       17.8948794691        4.5150639314
        C              20.2970171518              17.8948794691          20.50485491923797
  C        46.7837981446       17.2336261299       13.8797982049
        C              46.7837981446              17.2336261299         29.869589192737973
  C        45.4825441250       17.1347351040       13.1589292383
        C              45.4825441250              17.1347351040         29.148720226137975
  C        45.2647297739       16.1465281436       12.1864823968
        C              45.2647297739              16.1465281436         28.176273384637973
  C        44.0774684606       16.1270372227       11.4581265525
        C              44.0774684606              16.1270372227         27.447917540337972
  C        43.0764604993       17.0924059868       11.6838323593
        C              43.0764604993              17.0924059868         27.673623347137973
  C        43.2852757151       18.0503408694       12.6939848005
        C              43.2852757151              18.0503408694         28.683775788337975
  C        44.4736054802       18.0766762497       13.4172955579
        C              44.4736054802              18.0766762497          29.40708654573797
  C        41.8291814830       17.1207428473       10.8872320055
        C              41.8291814830              17.1207428473         26.877022993337974
  C        41.8522991554       17.1382120462        9.4657884643
        C              41.8522991554              17.1382120462          25.45557945213797
  C        43.0704420332       17.2398694159        8.7227247728
        C              43.0704420332              17.2398694159          24.71251576063797
  C        46.1535398909       26.6373477041        8.7211016406
        C              46.1535398909              26.6373477041         24.710892628437975
  C        46.1621594172       26.6558955581       11.5307630580
        C              46.1621594172              26.6558955581         27.520554045837972
  C        14.0457212772       17.8308493546       13.7032306378
        C              14.0457212772              17.8308493546         29.693021625637975
  C        15.3678523158       17.9030433383       13.0120391325
        C              15.3678523158              17.9030433383          29.00183012033797
  C        15.6444236266       18.9187161403       12.0847244822
        C              15.6444236266              18.9187161403         28.074515470037973
  C        16.8742547914       18.9543246336       11.4308712420
        C              16.8742547914              18.9543246336         27.420662229837973
  C        17.8559022945       17.9734410824       11.6782646014
        C              17.8559022945              17.9734410824         27.668055589237973
  C        17.5858982352       16.9860477877       12.6431957525
        C              17.5858982352              16.9860477877         28.632986740337973
  C        16.3580243874       16.9500665304       13.3005832401
        C              16.3580243874              16.9500665304         29.290374227937974
  C        19.1241624593       17.9498083920       10.9098353587
        C              19.1241624593              17.9498083920          26.89962634653797
  C        19.1010557114       17.9294641987        9.4881998743
        C              19.1010557114              17.9294641987         25.477990862137972
  C        17.8811802073       17.8142286391        8.7483018377
        C              17.8811802073              17.8142286391         24.738092825537972
  C        28.8051460065       14.0872773589        2.3940167612
        C              28.8051460065              14.0872773589         18.383807749037974
  C        28.1928802328       12.9141657523        3.0800502397
        C              28.1928802328              12.9141657523          19.06984122753797
  C        28.9204030270       12.1657594102        4.0175049949
        C              28.9204030270              12.1657594102         20.007295982737972
  C        28.3198230925       11.0922690147        4.6703776231
        C              28.3198230925              11.0922690147         20.660168610937973
  C        26.9795849518       10.7431967587        4.4086270314
        C              26.9795849518              10.7431967587         20.398418019237972
  C        26.2743287142       11.4708784981        3.4333328510
        C              26.2743287142              11.4708784981         19.423123838837974
  C        26.8717609420       12.5453236348        2.7796483241
        C              26.8717609420              12.5453236348         18.769439311937973
  C        26.3101962885        9.6648641335        5.1716974829
        C              26.3101962885               9.6648641335          21.16148847073797
  C        26.3005903029        9.6923936075        6.5926908446
        C              26.3005903029               9.6923936075          22.58248183243797
  C        26.8098941868       10.8040120076        7.3361452217
        C              26.8098941868              10.8040120076          23.32593620953797
  C        32.1821800982       21.2412350303        2.1490195624
        C              32.1821800982              21.2412350303         18.138810550237974
  C        32.7765451649       22.4068037674        2.8656322785
        C              32.7765451649              22.4068037674         18.855423266337972
  C        32.0345359436       23.0761582414        3.8509024511
        C              32.0345359436              23.0761582414         19.840693438937972
  C        32.6075237785       24.1130082925        4.5800626023
        C              32.6075237785              24.1130082925         20.569853590137974
  C        33.9386773062       24.5082062148        4.3454372569
        C              33.9386773062              24.5082062148         20.335228244737973
  C        34.6630929286       23.8572563879        3.3289695696