     586
 i =      275, E =     -4847.8861983387
  C        11.8583426587       14.0536271269       13.7364982531
  C        12.4558130744       12.8904750024       13.0182435901
  C        11.7042233718       12.1719224740       12.0762414083
  C        12.2805172318       11.1096579509       11.3838665304
  C        13.6209062023       10.7394422506       11.6119372014
  C        14.3538880979       11.4425413129       12.5858941329
  C        13.7810808170       12.5075480818       13.2774226490
  C        14.2605453291        9.6488506175       10.8385279151
  C        14.2561429840        9.6568877421        9.4168178334
  C        13.7428252719       10.7589211068        8.6628795850
  C        49.1265757649       21.2332323644       13.8745987156
  C        48.5498055162       22.4010498728       13.1474261581
  C        49.3000514165       23.0688566378       12.1669178195
  C        48.7330808514       24.1079474936       11.4336980102
  C        47.4023012011       24.5090532647       11.6618603565
  C        46.6710135009       23.8595450411       12.6747021591
  C        47.2335081850       22.8146700587       13.4040693387
  C        46.7721635071       25.5868388148       10.8646053330
  C        46.7613598906       25.5573594060        9.4428447300
  C        47.2612454187       24.4422208421        8.6993872867
  C        14.8603232344        8.5706518387        8.7035909603
  C        14.8912340004        8.5968536908       11.5151983823
  C        49.1130057303       21.2033758470        2.1504388556
  C        48.5275665228       22.3645685054        2.8777469305
  C        49.2670740109       23.0259263973        3.8700291756
  C        48.6906756196       24.0604398816        4.6014800904
  C        47.3599611647       24.4565366765        4.3638105755
  C        46.6391472400       23.8108173716        3.3411086483
  C        47.2127480738       22.7749059169        2.6093611742
  C        46.7216214873       25.5316281810        5.1547742450
  C        46.7335904667       25.5281432717        6.5764659717
  C        47.2489710151       24.4288982645        7.3328361228
  C        40.6227250251       17.1358897487        7.3082797613
  C        40.6374843414       17.1290942125        4.4989428827
  C        11.8827779852       14.0865685424        2.2905074067
  C        12.4720780753       12.9105356877        2.9946500602
  C        11.7145530170       12.1774669543        3.9208363386
  C        12.2810732744       11.0949813755        4.5893176992
  C        13.6198273654       10.7210943198        4.3574459788
  C        14.3577448236       11.4364334863        3.3964222039
  C        13.7923798599       12.5176077550        2.7236770524
  C        14.2535399108        9.6244442030        5.1279337547
  C        14.2524164617        9.6445184070        6.5497786426
  C        13.7423307527       10.7533823227        7.2968326852
  C        22.5120301857        3.2448348315       13.7481853597
  C        23.2266652040        4.3514974298       13.0494383311
  C        24.2251674979        4.0734571819       12.1042901880
  C        24.8515477528        5.1142690563       11.4232663022
  C        24.4952329886        6.4555847876       11.6671571328
  C        23.5249872945        6.7252482336       12.6494560300
  C        22.8940768837        5.6862092587       13.3288936638
  C        25.0999366485        7.5628332646       10.8910854133
  C        25.0709598590        7.5555968750        9.4695028001
  C        24.3667031150        6.5564031711        8.7251893752
  C        38.3027480828       31.9292560208       13.8439164544
  C        37.5738258865       30.8391607931       13.1346900448
  C        36.6160881258       31.1415884051       12.1546955049
  C        36.0002433743       30.1201808776       11.4367379910
  C        36.3271054921       28.7712745374       11.6774889406
  C        37.2548581805       28.4763683720       12.6941827989
  C        37.8751018056       29.4964552834       13.4106606845
  C        35.7267097647       27.6783824964       10.8802948848
  C        35.7609547984       27.6917613996        9.4590422026
  C        36.4679371611       28.6936465862        8.7221956606
  C        25.6951651357        8.6237874227        8.7478171214
  C        25.6979595149        8.6382150487       11.5600886195
  C        38.3290707734       31.9618142895        2.1615922019
  C        37.6089440462       30.8878229606        2.9036459673
  C        36.6818071347       31.1947936929        3.9112919452
  C        36.0739426297       30.1750054768        4.6409671898
  C        36.3788318507       28.8228193308        4.3864210595
  C        37.2834432586       28.5258775518        3.3486367028
  C        37.8934987661       29.5420978231        2.6203372830
  C        35.7731479057       27.7222802470        5.1703807515
  C        35.7847469946       27.7141314708        6.5923637192
  C        36.4788465671       28.7047103970        7.3556751909
  C        46.1357699577       26.6208975673        7.2865622920
  C        46.0875962431       26.5798964673        4.4786689190
  C        22.4598650064        3.2556688001        2.2633513251
  C        23.1518322702        4.3647343064        2.9880857753
  C        24.1524671865        4.0791202150        3.9305061851
  C        24.7787239348        5.1095474828        4.6276778110
  C        24.4245474307        6.4551851341        4.4044994943
  C        23.4466360506        6.7341053309        3.4309728668
  C        22.8155706157        5.7038772217        2.7346452500
  C        25.0553372631        7.5538598352        5.1778747166
  C        25.0489789146        7.5497592925        6.6006488899
  C        24.3543459804        6.5548149062        7.3585696285
  C        26.6239853372       17.8622102834       13.7824919676
  C        25.3146556023       17.9105553409       13.0580820795
  C        25.0200788745       18.9561995920       12.1656761615
  C        23.8102508463       18.9698439034       11.4705088266
  C        22.8551919184       17.9502364459       11.6556650752
  C        23.1444259363       16.9283281947       12.5795132795
  C        24.3577187810       16.9034746019       13.2655935400
  C        21.5805547404       17.9387456464       10.8915917769
  C        21.5832435891       17.9301788706        9.4697185823
  C        22.7912852496       17.8276360421        8.7097107748
  C        34.4199671060       17.2243611012       13.8712080343
  C        35.7132607039       17.1706278587       13.1338605680
  C        35.9089588667       16.2252839793       12.1149355509
  C        37.0963837420       16.2097293008       11.3894609074
  C        38.1186498679       17.1410661071       11.6584969398
  C        37.9249871620       18.0654725439       12.7030577966
  C        36.7368166864       18.0843883514       13.4290262219
  C        39.3738936844       17.1539427115       10.8741747418
  C        39.3681496319       17.1715006178        9.4518676048
  C        38.1616551025       17.2981658080        8.6936230508
  C        20.3357474546       17.9394980634        8.7622101262
  C        20.3573694567       17.9308338256       11.5761573287
  C        34.4491616037       17.2346865212        2.1869321737
  C        35.7530704994       17.1302650882        2.8995030047
  C        35.9525573397       16.1688885805        3.9021470122
  C        37.1426164727       16.1547047375        4.6261701920
  C        38.1594943794       17.0931759709        4.3673990836
  C        37.9672734299       18.0228456352        3.3271003707
  C        36.7770975481       18.0469075501        2.6073818881
  C        39.4061053626       17.1224531346        5.1639162340
  C        39.3847987406       17.1530689963        6.5853996396
  C        38.1688677769       17.2849438122        7.3271843100
  C        35.1552604279       26.6341508309        7.2961647529
  C        35.1826629038       26.6520108273        4.4871878462
  C        26.5694491724       17.8251195764        2.3298054185
  C        25.2547816486       17.8756189037        3.0328893453
  C        24.9846262287       18.8935323155        3.9598915278
  C        23.7672593139       18.9220649294        4.6338323249
  C        22.7913554204       17.9319860443        4.4046245693
  C        23.0547148492       16.9390736579        3.4436597208
  C        24.2726895049       16.9088567034        2.7674790643
  C        21.5295214577       17.9146720797        5.1805661349
  C        21.5564198146       17.9139628407        6.6021683235
  C        22.7775053725       17.8175527211        7.3431914207
  C        14.0462053584       17.8280606089        2.2945564195
  C        15.3506477464       17.8835729899        3.0216976886
  C        15.6070960894       18.8856477358        3.9704626717
  C        16.8160330035       18.9059471766        4.6637140146
  C        17.8030817790       17.9270683433        4.4302235467
  C        17.5510337483       16.9485042565        3.4501435888
  C        16.3413985005       16.9236212482        2.7586485875
  C        19.0732388366       17.9123671485        5.1980405475
  C        19.0742456282       17.9110593821        6.6204362081
  C        17.8682897664       17.8059171546        7.3824528573
  C        46.8036161169       17.2168242887        2.1619301309
  C        45.5116543175       17.1512108948        2.9018946701
  C        45.3076558382       16.1778955212        3.8923243235
  C        44.1239954519       16.1586601449        4.6249786126
  C        43.1145268051       17.1122287821        4.3887192819
  C        43.3148543576       18.0629247204        3.3696022378
  C        44.4994109312       18.0867501121        2.6383634072
  C        41.8616488845       17.1262925065        5.1770918504
  C        41.8689098605       17.1415859338        6.5988247218
  C        43.0781685222       17.2444880839        7.3558604527
  C        20.3217247447       17.9307241602        7.3275687351
  C        20.2970171518       17.8948794691        4.5150639314
  C        46.7837981446       17.2336261299       13.8797982049
  C        45.4825441250       17.1347351040       13.1589292383
  C        45.2647297739       16.1465281436       12.1864823968
  C        44.0774684606       16.1270372227       11.4581265525
  C        43.0764604993       17.0924059868       11.6838323593
  C        43.2852757151       18.0503408694       12.6939848005
  C        44.4736054802       18.0766762497       13.4172955579
  C        41.8291814830       17.1207428473       10.8872320055
  C        41.8522991554       17.1382120462        9.4657884643
  C        43.0704420332       17.2398694159        8.7227247728
  C        46.1535398909       26.6373477041        8.7211016406
  C        46.1621594172       26.6558955581       11.5307630580
  C        14.0457212772       17.8308493546       13.7032306378
  C        15.3678523158       17.9030433383       13.0120391325
  C        15.6444236266       18.9187161403       12.0847244822
  C        16.8742547914       18.9543246336       11.4308712420
  C        17.8559022945       17.9734410824       11.6782646014
  C        17.5858982352       16.9860477877       12.6431957525
  C        16.3580243874       16.9500665304       13.3005832401
  C        19.1241624593       17.9498083920       10.9098353587
  C        19.1010557114       17.9294641987        9.4881998743
  C        17.8811802073       17.8142286391        8.7483018377
  C        28.8051460065       14.0872773589        2.3940167612
  C        28.1928802328       12.9141657523        3.0800502397
  C        28.9204030270       12.1657594102        4.0175049949
  C        28.3198230925       11.0922690147        4.6703776231
  C        26.9795849518       10.7431967587        4.4086270314
  C        26.2743287142       11.4708784981        3.4333328510
  C        26.8717609420       12.5453236348        2.7796483241
  C        26.3101962885        9.6648641335        5.1716974829
  C        26.3005903029        9.6923936075        6.5926908446
  C        26.8098941868       10.8040120076        7.3361452217
  C        32.1821800982       21.2412350303        2.1490195624
  C        32.7765451649       22.4068037674        2.8656322785
  C        32.0345359436       23.0761582414        3.8509024511
  C        32.6075237785       24.1130082925        4.5800626023
  C        33.9386773062       24.5082062148        4.3454372569
  C        34.6630929286       23.8572563879        3.3289695696
  C        34.0926026416       22.8148771754        2.6013324271
  C        34.5698194439       25.5810016669        5.1467366764
  C        34.5639507421       25.5499027128        6.5684458735
  C        34.0580804845       24.4331586124        7.3064519365
  C        25.6887402721        8.6170141231        7.3132632839
  C        25.6710022915        8.6148103319        4.4999975089
  C        32.1054213659       21.2250513221       13.8751794675
  C        32.6957480427       22.3751081187       13.1313705535
  C        31.9622502010       23.0329285781       12.1320725717
  C        32.5437492935       24.0620171340       11.3953150175
  C        33.8717279704       24.4631114090       11.6403612152
  C        34.5877366364       23.8183798932       12.6670686887
  C        34.0115083133       22.7834792339       13.3986468546
  C        34.5136943060       25.5434412343       10.8564185761
  C        34.5343467416       25.5315405391        9.4346121705
  C        34.0427297103       24.4247570198        8.6731621847
  C        40.6141542848       17.1397846059        8.7429376546
  C        40.5983016391       17.1448467383       11.5529567619
  C        28.7497759308       14.0621990671       13.8286852806
  C        28.1377507600       12.9180864707       13.0858377596
  C        28.8729845125       12.2229891861       12.1114571814
  C        28.2877939030       11.1726899844       11.4071376536
  C        26.9543294619       10.7888023452       11.6531183352
  C        26.2359000220       11.4728292209       12.6526950135
  C        26.8164368203       12.5249139150       13.3569328336
  C        26.3109112361        9.6991890030       10.8804842164
  C        26.3024504087        9.7109514700        9.4586610376
  C        26.8083003204       10.8144476645        8.7019951847
  C        18.1353702117        3.1809087589        2.3222497996
  C        17.4060168406        4.2781644377        3.0208538714
  C        16.3905635996        3.9998011390        3.9486566996
  C        15.7428660655        5.0397780790        4.6122002638
  C        16.0945189725        6.3835235053        4.3722843076
  C        17.0835698940        6.6530281900        3.4081693090
  C        17.7326371407        5.6157005118        2.7430770354
  C        15.4702443804        7.4912523913        5.1353175494
  C        15.4856960681        7.4906858564        6.5570236592
  C        16.1873971680        6.4971886939        7.3102136318
  C        42.9459621439       31.8594066252        2.0780309935
  C        43.6462920506       30.7718195920        2.8219076855
  C        44.5920893628       31.0930923410        3.8077692250
  C        45.1978037960       30.0875176787        4.5553634810
  C        44.8710937644       28.7344695812        4.3407340804
  C        43.9450034484       28.4201672558        3.3277418008
  C        43.3361950745       29.4253328217        2.5797396300
  C        45.4886852346       27.6551940248        5.1439404861
  C        45.4931337237       27.6810472137        6.5656257895
  C        44.8062430011       28.6892327833        7.3122367835
  C        14.8566250559        8.5631345938        7.2693602309
  C        14.8747276196        8.5628673417        4.4566844100
  C        42.9465072426       31.9614253344       13.8038273602
  C        43.6916943216       30.8854011842       13.0904120756
  C        44.6564594266       31.1913170980       12.1182506255
  C        45.2779656152       30.1717428389       11.4005247793
  C        44.9540710708       28.8214008307       11.6379777861
  C        44.0203969251       28.5237309681       12.6485927014
  C        43.3921519759       29.5404741309       13.3608003261
  C        45.5631200505       27.7240412821       10.8526995656
  C        45.5336578303       27.7175458001        9.4313975932
  C        44.8275180515       28.7078850849        8.6784195399
  C        35.1417072741       26.6237254860        8.7308292492
  C        35.1210991391       26.6033344689       11.5404499520
  C        18.1485084755        3.2469282866       13.7015490901
  C        17.4297748860        4.3437813853       12.9923601200
  C        16.4149219561        4.0524732801       12.0684164054
  C        15.7665810411        5.0830757752       11.3930022530
  C        16.1207929502        6.4283633125       11.6161117214
  C        17.1117121337        6.7117604484       12.5738465754
  C        17.7594221445        5.6828850628       13.2536274687
  C        15.4903810422        7.5240821839       10.8436353809
  C        15.4965798786        7.5075781702        9.4224989414
  C        16.1935602279        6.5060124742        8.6758182781
 Zr         9.2948654683       16.0528761568       14.1771897571
 Zr        49.8349866860       16.0066879137        1.7517572737
 Zr        22.0732588433        0.0294071563       14.1839905451
 Zr        42.4609913945       35.1529514799        1.8059950654
 Zr        29.6172103790       19.1073895949       14.2715045500
 Zr        29.5876052127       19.1863498392        1.8733127595
 Zr        11.0367621633       19.0520308739        1.8325368040
 Zr        11.0425847897       19.1548540751       14.2464862722
 Zr        31.3581592926       16.0958739303        1.8749922073
 Zr        31.3878558878       16.0332579896       14.2777700511
 Zr        18.6010955000       -0.0017120910        1.7684885199
 Zr        18.5064163287       -0.0080796639       14.2086428146
 Zr        12.3003469584       16.3235767408       15.9850879391
 Zr        48.6142753587       18.8326461434        0.0152223653
 Zr        20.3149470208        2.4729091002       15.9854587811
 Zr        40.6435503557       32.6865831078       15.9731061117
 Zr        28.3541357623       16.3455649458        0.0927849979
 Zr        32.6382143141       18.8429550428        0.0506691766
  H        10.6722010494       12.4663407036       11.8990013441
  H        11.6941895983       10.5514372553       10.6571526585
  H        15.3907008800       11.1674065132       12.7680470692
  H        14.3502794798       13.0703760163       14.0133662011
  H        13.3753918266       11.6308668413        9.1961895184
  H        50.3229416462       22.7492031377       11.9825579995
  H        49.3196513152       24.6235992553       10.6764532003
  H        45.6412207249       24.1596445268       12.8572842385
  H        46.6621738662       22.2888517595       14.1655265090
  H        47.6294930555       23.5757287426        9.2410926087
  H        14.8711675833        8.5879010307       12.6034978230
  H        50.2873638937       22.7035885400        4.0644671298
  H        49.2691856334       24.5764022097        5.3645492370
  H        45.6093846989       24.1072513541        3.1527285634
  H        46.6515222047       22.2520030580        1.8385931579
  H        47.6074750893       23.5516759758        6.8019146618
  H        40.6432362615       17.0816925600        3.4116649754
  H        10.6810876194       12.4666042544        4.0982372618
  H        11.6891638073       10.5246571173        5.3019810350
  H        15.3930721656       11.1582685591        3.2103281063
  H        14.3645684038       13.0867938811        1.9948845948
  H        13.3751017006       11.6218085095        6.7581648663
  H        24.4880844689        3.0353541041       11.9133719416
  H        25.6257721167        4.8979960473       10.6902842290
  H        23.2419123418        7.7575978932       12.8442364671
  H        22.1227271066        5.8851870860       14.0688827739
  H        23.8052667167        5.8008859191        9.2670065723
  H        36.3794076754       32.1845227815       11.9576924293
  H        35.2574381528       30.3580376864       10.6784966275
  H        37.5147214019       27.4375492089       12.8869917342
  H        38.6173650818       29.2766780807       14.1743358199
  H        37.0329612337       29.4432530207        9.2685349008
  H        25.7337431258        8.6219282295       12.6479181365
  H        36.4585399347       32.2386190470        4.1201392813
  H        35.3496932618       30.4185489655        5.4151530985
  H        37.5308718991       27.4860602553        3.1453969664
  H        38.6146135741       29.3177083018        1.8381820672
  H        37.0531319750       29.4624475083        6.8304455181
  H        46.1086611414       26.5869898578        3.3906249441
  H        24.4304709043        3.0410103877        4.0980129294
  H        25.5587685000        4.8810580330        5.3508032130
  H        23.1615787726        7.7684919247        3.2499090874
  H        22.0447785431        5.9161874221        1.9973537701
  H        23.7824993050        5.7987144342        6.8283811307
  H        25.7482584898       19.7547649904       12.0342139101
  H        23.5901074842       19.7815483273       10.7801326077
  H        22.4183340966       16.1316774498       12.7288914433
  H        24.5923179033       16.1013549664       13.9616705616
  H        23.7369077954       17.7228163542        9.2347225382
  H        35.1148031562       15.5154229205       11.8970698458
  H        37.2456946833       15.4682115986       10.6077949923
  H        38.7054836767       18.7929824415       12.9161067574
  H        36.5723448574       18.8126119034       14.2197667465
  H        37.2226807373       17.4322993886        9.2226893018
  H        20.3649871600       17.9615741143       12.6643336350
  H        35.1645166345       15.4583434417        4.1405468407
  H        37.2877459796       15.4106081975        5.4062579637
  H        38.7457908993       18.7540528057        3.1198428619
  H        36.6066607608       18.7863694377        1.8287989301
  H        37.2353298298       17.4036443855        6.7845706813
  H        35.1525888244       26.6795212728        3.3995935859
  H        25.7410109583       19.6549851270        4.1345500057
  H        23.5573222206       19.7149165157        5.3484792354
  H        22.3088235382       16.1681390059        3.2614179679
  H        24.4927546121       16.1301755833        2.0410951140
  H        23.7114151245       17.7046140673        6.8003950095
  H        14.8485386980       19.6444602785        4.1492653165
  H        17.0108202661       19.6896461455        5.3927081771
  H        18.3021173337       16.1842692776        3.2609112510
  H        16.1354408224       16.1549591832        2.0175235288
  H        16.9261951263       17.6854332031        6.8554725525
  H        46.0937842909       15.4507277706        4.0814994473
  H        43.9663796087       15.3973336633        5.3857789447
  H        42.5425355965       18.8060369374        3.1822582923
  H        44.6708410587       18.8358968933        1.8689735923
  H        44.0192147820       17.3571974761        6.8251232135
  H        20.2900955896       17.9199232038        3.4268222306
  H        46.0410676889       15.4070637626       12.0033934169
  H        43.9124617081       15.3591633033       10.7054414695
  H        42.5186588460       18.8005803194       12.8762906855
  H        44.6539709458       18.8359561260       14.1742776229
  H        44.0056193313       17.3478045745        9.2645192947
  H        46.1987098026       26.6822039565       12.6182222702
  H        14.8856734419       19.6742588457       11.8928424092
  H        17.0870502467       19.7452373767       10.7148208671
  H        18.3340713944       16.2214460937       12.8420976661
  H        16.1347379709       16.1748909502       14.0296185740
  H        16.9488878891       17.7000989740        9.2931634254
  H        29.9539032878       12.4374850233        4.2213664741
  H        28.8848881914       10.5114290598        5.3962122891
  H        25.2387805402       11.2103803439        3.2244264758
  H        26.3251462808       13.1296201712        2.0435432425
  H        27.1766467730       11.6706812309        6.7943985481
  H        31.0132426894       22.7561020818        4.0412895216
  H        32.0279570028       24.6308668860        5.3409910941
  H        35.6936625537       24.1526004274        3.1429180726
  H        34.6583924147       22.2859556610        1.8378188378
  H        33.7049090498       23.5621129994        6.7617258708
  H        25.6993256934        8.5947023433        3.4119741147
  H        30.9394088326       22.7168648248       11.9399699366
  H        31.9694838878       24.5728086481       10.6255163872
  H        35.6160382377       24.1164915828       12.8608254524
  H        34.5701151089       22.2625514540       14.1727121954
  H        33.6784471096       23.5471663783        9.2000559275
  H        40.5918494727       17.1008050137       12.6404198998
  H        29.9034287599       12.5178291682       11.9244559238
  H        28.8657056968       10.6308902557       10.6615512528
  H        25.2038102603       11.1891106266       12.8483465052
  H        26.2597150406       13.0674808128       14.1174223268
  H        27.1733233106       11.6900651653        9.2308913399
  H        16.1186449034        2.9632868284        4.1352175376
  H        14.9535716143        4.8203758339        5.3280262627
  H        17.3656873352        7.6859350680        3.2147790564
  H        18.5143638048        5.8183070422        2.0148861039
  H        16.7540027944        5.7398756698        6.7767292797
  H        44.8286286337       32.1401347442        3.9818184592
  H        45.9378626596       30.3412119359        5.3111370546
  H        43.6820365115       27.3781298922        3.1578370434
  H        42.5993997515       29.1899330817        1.8152710384
  H        44.2309208652       29.4370319262        6.7739452728
  H        14.8506937708        8.5459282764        3.3684715416
  H        44.9001587989       32.2339752564       11.9268949865
  H        46.0249961487       30.4129553522       10.6474093030
  H        43.7632703100       27.4840135537       12.8400080622
  H        42.6455485299       29.3175714554       14.1191057272
  H        44.2690400519       29.4708162000        9.2129658152
  H        35.0755967293       26.6170891852       12.6277813679
  H        16.1441303457        3.0128666450       11.8984063399
  H        14.9744902872        4.8561701115       10.6826753398
  H        17.3947010683        7.7472873697       12.7511927678
  H        18.5418885565        5.8933239965       13.9788331074
  H        16.7649673527        5.7557750920        9.2142833284
  O        10.6497689865       14.3651486356       13.4806728586
  O        12.6131235961       14.6575791716       14.5787309095
  O        49.1479396049       16.8460295360       15.9846150916
  O        50.3502154809       20.9359524309       13.6430881610
  O        48.3485302907       20.5933578044       14.6608554073
  O        11.0511861365       17.0539621256       14.4953932582
  O        50.3210262323       20.8816791799        2.4118625621
  O        48.3467751649       20.5867436136        1.3321808185
  O        49.5436178887       18.2484643539        2.0733654368
  O        12.3588348807       18.6244652378        0.0047891558
  O        48.6931549638       14.1487424996       14.7461025476
  O         8.2098767716       14.2103292446        1.3276198946
  O        10.7353850156       14.5066977966        2.6694548965
  O        12.5718175819       14.5828653246        1.3335543609
  O        22.8448391652        2.0439116296       13.4818613605
  O        21.6055184583        3.5924841237       14.5846145760
  O        42.0581573941       34.1373219803       15.9738547043
  O        37.9818065130       33.1376071206       13.5673552483
  O        39.2182524859       31.5761877642       14.6616970981
  O        20.3084057196        1.0395324649       14.4969470870
  O        38.0246213501       33.1855968929        2.4203502563
  O        39.2192888054       31.5838791784        1.3313947934
  O        40.6522578872       33.7693099031        2.0653650050
  O        18.2554920180        1.3759998690        0.0019063544
  O        44.6221853778       35.1005785432       14.7535989761
  O        24.2053836996        0.0000548427        1.3259128009
  O        22.7529923975        2.0578716686        2.5890645267
  O        21.6244155849        3.5961193728        1.3477382249
  O        27.5002172860       18.7521122971       13.4869907997
  O        26.7642169891       16.9360267568       14.6494903482
  O        30.6691407968       19.4043350292        0.0714768925
  O        33.5406113555       16.3379941683       13.5807498548
  O        34.2743649943       18.1659510944       14.7267731148
  O        29.5735609835       17.0652616647       14.5757338218
  O        33.5572158447       16.3429920686        2.4212995405
  O        34.3000396986       18.2413926326        1.4112884846
  O        31.6498568931       18.3131566757        2.1718326199
  O        30.3254763346       15.1593534756        0.0911355594
  O        28.5541946748       21.0345265960       14.8921309781
  O        28.5136708887       20.9580185798        1.4168015121
  O        27.4595870430       18.6767242992        2.6665765743
  O        26.6943687569       16.9301581463        1.4179317316
  O        13.1492472648       18.6928002753        2.5928588209
  O        13.9197547417       16.9161438230        1.4102649425
  O        50.5956247953       19.3501546772        0.0254724100
  O        47.6835790246       16.3269095960        2.4221703932