     562
 i =      215, E =     -4678.9399550172
  C        11.8586287056       14.0534455298        21.731276991538
  C        12.4561079619       12.8905702141        21.012903243338
  C        11.7043625024       12.1713743407        20.071479244738
  C        12.2807885176       11.1091405319        19.379209911738
  C        13.6214801801       10.7395478772        19.606682275338
  C        14.3547180367       11.4434691568        20.579855398338
  C        13.7817866270       12.5084371890        21.271346366438
  C        14.2609113676        9.6487850220        18.833298634138
  C        14.2556675996        9.6564198780        17.411594234138
  C        13.7422419131       10.7584251231        16.657689230138
  C        49.1266444544       21.2333323762        21.869597627638
  C        48.5499062641       22.4012332807        21.142573856238
  C        49.2996481391       23.0677845933        20.160817613638
  C        48.7327533225       24.1068614327        19.427528209038
  C        47.4025819308       24.5093506920        19.656875607038
  C        46.6720175569       23.8613312885        20.671239961638
  C        47.2343886021       22.8164378272        21.400660036538
  C        46.7723509273       25.5869904933        18.859552286638
  C        46.7611378217       25.5572579912        17.437787870038
  C        47.2607162238       24.4420249652        16.694267208138
  C        14.8593021840        8.5699230230        16.698298570738
  C        14.8920110066        8.5969954951        19.509926733938
  C        49.1130246577       21.2035161669       10.1452949291
  C        48.5278017078       22.3650116034       10.8722288399
  C        49.2667070780       23.0248541731       11.8659904131
  C        48.6904915887       24.0594199096       12.5975030022
  C        47.3604875058       24.4571381430       12.3584901887
  C        46.6405009486       23.8132207250       11.3340166482
  C        47.2139316362       22.7772897555       10.6021819693
  C        46.7220048310       25.5319972609       13.1496045440
  C        46.7334805514       25.5281713982       14.5713226355
  C        47.2484616019       24.4287520614       15.3277129528
  C        40.6024220253       17.0933143357       15.3086770512
  C        40.6027398096       17.1041221359       12.4969055592
  C        11.8825687339       14.0864296294       10.2856086948
  C        12.4716430230       12.9105794589       10.9898763723
  C        11.7137516894       12.1769996533       11.9153981793
  C        12.2801103296       11.0943569911       12.5837063163
  C        13.6190725076       10.7208065396       12.3523966467
  C        14.3575002626       11.4368561967       11.3923005169
  C        13.7922963666       12.5181897057       10.7196835630
  C        14.2523892629        9.6238219233       13.1227454668
  C        14.2511040889        9.6437420977       14.5445747981
  C        13.7413599734       10.7527457540       15.2916459544
  C        22.5036373478        3.2433510741        21.733126291538
  C        23.1999728947        4.3452678802        21.010473910538
  C        24.1973221659        4.0606621150        20.065994002338
  C        24.8171670824        5.0958383510        19.370895428038
  C        24.4548005025        6.4381430743        19.599439432438
  C        23.4787709052        6.7142688544        20.574536273138
  C        22.8552285752        5.6809951610        21.268828652738
  C        25.0713247181        7.5424547911        18.829700790938
  C        25.0820102488        7.5314077032        17.408272318838
  C        24.3983020766        6.5310122433        16.647575350938
  C        38.3012749930       31.9264812109        21.837589518638
  C        37.5688896574       30.8365310062        21.127796530838
  C        36.6091506859       31.1411990286        20.149897041438
  C        35.9869847879       30.1222728097        19.432887247038
  C        36.3079706007       28.7710990510        19.670694753438
  C        37.2384699622       28.4740431056        20.684793791638
  C        37.8650495101       29.4918120982        21.400630982038
  C        35.6999061317       27.6800816874        18.873128670738
  C        35.7335037824       27.6929393725        17.450985213638
  C        36.4417625237       28.6931956491        16.713181885738
  C        25.7244743894        8.5990052742        16.701838717338
  C        25.6486825565        8.6204060044        19.512526995138
  C        38.3270588356       31.9601985093       10.1567100808
  C        37.6030559013       30.8857569385       10.8971397112
  C        36.6729373203       31.1928754294       11.9023548831
  C        36.0597718554       30.1738222857       12.6293470420
  C        36.3611929871       28.8203559802       12.3759821164
  C        37.2690159240       28.5233366754       11.3406275400
  C        37.8843412465       29.5389296327       10.6147684257
  C        35.7505134445       27.7204932824       13.1596723882
  C        35.7594544519       27.7133999536       14.5823726906
  C        36.4534250823       28.7035520404       15.3464546432
  C        46.1354995395       26.6208121387       15.2814842376
  C        46.0882482134       26.5805141797       12.4735928152
  C        22.4751970370        3.2563157714       10.2489875523
  C        23.2022336758        4.3609069411       10.9482394029
  C        24.2142820925        4.0649751220       11.8758533933
  C        24.8686646648        5.0886837430       12.5574537067
  C        24.5325530352        6.4393322457       12.3354426823
  C        23.5483684258        6.7284690430       11.3711614217
  C        22.8894265494        5.7048423313       10.6892439816
  C        25.1716852989        7.5296680713       13.1172935204
  C        25.1332267096        7.5243965991       14.5401145131
  C        24.4189656016        6.5303476140       15.2811185862
  C        26.5566566313       17.8281178281        21.777703025238
  C        25.2566687066       17.8876874948        21.052046239338
  C        25.0074802057       18.8933806639        20.105461367138
  C        23.8000746426       18.9205976649        19.412253759338
  C        22.8101095679       17.9454952069        19.645642834038
  C        23.0544635491       16.9635176122        20.623716746738
  C        24.2632872542       16.9309811241        21.314966841238
  C        21.5450066466       17.9365542333        18.873588430038
  C        21.5539126230       17.9258683485        17.451744234638
  C        22.7640555837       17.8103077442        16.697375805338
  C        34.4178934319       17.2184948352        21.903797686638
  C        35.7149058441       17.1535809083        21.167021934338
  C        35.9080191485       16.1928737283        20.161867953638
  C        37.0917954999       16.1690077063        19.428797539438
  C        38.1147053190       17.1060597703        19.676272501438
  C        37.9237542695       18.0456836062        20.707986601238
  C        36.7385716404       18.0738919218        21.440270488438
  C        39.3673544375       17.1119949107        18.883805349438
  C        39.3568873697       17.1229432707        17.460998718938
  C        38.1467322922       17.2479257389        16.709024259038
  C        20.3104413296       17.9459384192        16.739134662938
  C        20.3191444311       17.9317916371        19.551523049338
  C        34.3637961769       17.1847782464       10.2641355081
  C        35.6720703072       17.0976860823       10.9718545301
  C        35.9042006898       16.1268708666       11.9591599468
  C        37.1092150969       16.1088359941       12.6576033394
  C        38.1148557538       17.0601542281       12.3917010328
  C        37.8896644428       18.0007059979       11.3683179933
  C        36.6848627737       18.0236635111       10.6713607477
  C        39.3745901219       17.0893619931       13.1706503946
  C        39.3605685051       17.1120070092       14.5927995164
  C        38.1486024675       17.2406398951       15.3424088343
  C        35.1273018441       26.6348474748       15.2865096171
  C        35.1587967616       26.6499704594       12.4768192379
  C        26.5618030255       17.8224211854       10.3276263148
  C        25.2498702832       17.8749583167       11.0299176519
  C        24.9754580899       18.9005961073       11.9473006845
  C        23.7576253682       18.9288276969       12.6200781894
  C        22.7862885882       17.9337391880       12.3951925848
  C        23.0534355293       16.9339094375       11.4427293978
  C        24.2725275634       16.9017187717       10.7699627934
  C        21.5217003882       17.9205450354       13.1649226281
  C        21.5414838829       17.9167431799       14.5858457515
  C        22.7580893090       17.8061881139       15.3311237873
  C        14.0450373739       17.8316512602       10.2841302710
  C        15.3510203016       17.8951756688       11.0015956343
  C        15.6104944994       18.9084096703       11.9371773636
  C        16.8207952846       18.9335353478       12.6262320090
  C        17.8024789465       17.9480732524       12.4003633511
  C        17.5489697616       16.9604117224       11.4304994261
  C        16.3382629401       16.9309489108       10.7427600928
  C        19.0682188001       17.9315372068       13.1710105260
  C        19.0602911888       17.9299832137       14.5925427600
  C        17.8491556129       17.8318896846       15.3472968512
  C        46.7977439282       17.2162189747       10.1570578168
  C        45.4986886212       17.1458402222       10.8937335598
  C        45.2871923756       16.1639476025       11.8747019333
  C        44.0994024225       16.1370348739       12.6025904254
  C        43.0879444257       17.0916492062       12.3748710031
  C        43.2955246974       18.0512773490       11.3648467089
  C        44.4844923973       18.0821639437       10.6377513681
  C        41.8330152100       17.0987057124       13.1673843281
  C        41.8451503449       17.1047543596       14.5910145205
  C        43.0573581922       17.2040256720       15.3444823609
  C        20.3037630354       17.9405396469       15.3053384299
  C        20.2936284950       17.9074598930       12.4928387057
  C        46.7836858126       17.2332826096        21.874164628638
  C        45.4822260019       17.1303259447        21.151180970138
  C        45.2655664955       16.1336752238        20.187079862838
  C        44.0779579880       16.1050834423        19.459068952438
  C        43.0751119041       17.0702576859        19.676546877338
  C        43.2838343436       18.0389782637        20.676509444338
  C        44.4724109831       18.0737245773        21.399856157438
  C        41.8243348958       17.0868519348        18.883536056038
  C        41.8410627631       17.0968059159        17.461542060738
  C        43.0553015272       17.1973924996        16.711651128938
  C        46.1532272854       26.6371977735        16.716040469338
  C        46.1626382293       26.6562552042        19.525681467138
  C        14.0396816967       17.8286152806        21.696393569238
  C        15.3533959204       17.8984233923        20.996608171438
  C        15.6220693851       18.9197621560        20.073550601138
  C        16.8459093555       18.9573120890        19.410688265838
  C        17.8252879256       17.9724569902        19.646881163738
  C        17.5623584542       16.9773427521        20.605297858338
  C        16.3407141213       16.9394685789        21.271998291538
  C        19.0910587492       17.9539264027        18.879300803238
  C        19.0723251016       17.9408802275        17.458433807238
  C        17.8551025036       17.8366766369        16.713301527038
  C        28.8445592543       14.1188340971       10.3782743667
  C        28.2763415938       12.9329425509       11.0762898275
  C        29.0003777316       12.2290965338       12.0501893443
  C        28.4215146149       11.1372042352       12.6953443436
  C        27.1064607238       10.7259502070       12.3929377248
  C        26.4084167681       11.4121651732       11.3824998988
  C        26.9823466533       12.5018042958       10.7365692828
  C        26.4380662190        9.6369951636       13.1431031610
  C        26.3887709891        9.6665540738       14.5635530326
  C        26.8690135827       10.7827505394       15.3196285800
  C        32.1809093465       21.2366812301       10.1104205063
  C        32.7678473124       22.3990695773       10.8376050039
  C        32.0221433873       23.0557654633       11.8294987282
  C        32.5893011082       24.0925553204       12.5652977192
  C        33.9169106851       24.5026160824       12.3318961626
  C        34.6438063352       23.8627304982       11.3092800178
  C        34.0807815623       22.8203274173       10.5755794052
  C        34.5438545855       25.5785147774       13.1355439378
  C        34.5368984248       25.5498042405       14.5580437404
  C        34.0329781171       24.4334719831       15.2973835213
  C        25.7577842371        8.5905954830       15.2676760783
  C        25.8117152501        8.5866715973       12.4561045176
  C        32.0713658944       21.1927476043        21.830054049838
  C        32.6551976255       22.3570128549        21.099507245838
  C        31.9328361851       23.0037182696        20.084548328338
  C        32.5122329905       24.0447681753        19.362032924838
  C        33.8294939515       24.4676597123        19.630849246638
  C        34.5321417278       23.8355529181        20.675087800938
  C        33.9570198716       22.7921928892        21.395815440438
  C        34.4762305630       25.5483497185        18.849245309638
  C        34.5020481039       25.5350943038        17.426524789238
  C        34.0152094475       24.4269071194        16.664089956138
  C        40.5996327854       17.0937194936        16.744470594238
  C        40.5961320996       17.1101454242        19.555179556238
  C        28.6609584012       14.0562588955        21.810066506038
  C        28.0586751764       12.9089950642        21.071715063738
  C        28.8146680031       12.1986301046        20.126337208238
  C        28.2443255203       11.1436094540        19.419785760438
  C        26.9024334124       10.7710293965        19.634257587238
  C        26.1628267739       11.4666071205        20.609087382538
  C        26.7316050540       12.5235091300        21.317519217838
  C        26.2774300097        9.6807050197        18.848483501138
  C        26.3079517109        9.6890640460        17.427183731938
  C        26.8287079551       10.7945576969        16.684540170338
  C        18.1353623712        3.1809115027       10.3170487161
  C        17.4054619536        4.2779891680       11.0153459362
  C        16.3895840120        3.9992665143       11.9425986047
  C        15.7414987310        5.0389927327       12.6061508262
  C        16.0931293094        6.3828302175       12.3667058329
  C        17.0825532379        6.6527157996       11.4030819306
  C        17.7320394791        5.6156220664       10.7379911704
  C        15.4685990717        7.4903415802       13.1299082997
  C        15.4839434858        7.4896442710       14.5516424970
  C        16.1854179684        6.4959467251       15.3047856092
  C        42.9457843481       31.8595604298       10.0728355404
  C        43.6462417039       30.7718973535       10.8168044605
  C        44.5916734424       31.0933559037       11.8029182273
  C        45.1974733071       30.0878899273       12.5506194847
  C        44.8712405741       28.7347968817       12.3357133012
  C        43.9455054049       28.4203377557       11.3224585233
  C        43.3365668127       29.4253935105       10.5743934178
  C        45.4888657896       27.6555108394       13.1388902376
  C        45.4928491216       27.6809909690       14.5605895860
  C        44.8057048586       28.6889809658       15.3072289963
  C        14.8551390995        8.5622086091       15.2640653872
  C        14.8734717417        8.5622564973       12.4513926342
  C        42.9464659149       31.9616174726        21.798851549738
  C        43.6918125094       30.8854780385        21.085425854138
  C        44.6561388508       31.1914773965        20.112894707238
  C        45.2777247299       30.1719441855        19.395140755638
  C        44.9542362743       28.8215935443        19.632955523338
  C        44.0210423402       28.5238509006        20.643977602938
  C        43.3927060789       29.5405630653        21.356183652738
  C        45.5632132270       27.7241848160        18.847652090038
  C        45.5333655009       27.7174125749        17.426348504938
  C        44.8269254369       28.7075707885        16.673416668438
  C        35.1119422647       26.6259227263        16.722191918538
  C        35.0875793505       26.6076940617        19.532631209538
  C        18.1488060678        3.2468525608        21.696513696038
  C        17.4303247248        4.3437444899        20.987029379938
  C        16.4145345445        4.0524766261        20.064105181338
  C        15.7661474797        5.0830793014        19.388719213738
  C        16.1213320708        6.4282920053        19.610731919838
  C        17.1134119939        6.7116853306        20.567266849938
  C        17.7611127191        5.6828046224        21.247092106838
  C        15.4905187884        7.5238835576        18.838316412038
  C        15.4957267334        7.5069202704        17.417168393638
  C        16.1920420035        6.5049618665        16.670394702138
  H        10.6721423407       12.4652738793        19.894625266238
  H        11.6944215385       10.5504252415        18.652914518538
  H        15.3918530420       11.1691181065        20.761377168438
  H        14.3513508069       13.0718048451        22.006598110538
  H        13.3754228293       11.6306491569        17.190965512038
  H        50.3220676944       22.7471443152        19.975523972738
  H        49.3190310659       24.6215052624        18.669369027838
  H        45.6428561409       24.1628361912        20.855065434938
  H        46.6636176484       22.2918931431        22.163416499438
  H        47.6289180546       23.5754791107        17.235905894238
  H        14.8728815952        8.5884968599        20.598245641838
  H        50.2864105635       22.7013038143       12.0615294302
  H        49.2686622161       24.5741970800       13.3616282781
  H        45.6114711140       24.1112850230       11.1442135341
  H        46.6533749951       22.2558967930        9.8299054784
  H        47.6069719729       23.5515152309       14.7968339737
  H        40.6021500222       17.0654921517       11.4090974686
  H        48.6868977226       14.0952660444        23.789704272538
  H        10.6801523111       12.4658809731       12.0923471226
  H        11.6880268669       10.5236316351       13.2958934821
  H        15.3930952390       11.1592156651       11.2069038949
  H        14.3650322157       13.0878625013        9.9917029444
  H        13.3744335701       11.6213102317       14.7529977943
  H        47.9299855162       14.2187033140        9.7112374503
  H        47.7798591114       14.3736324195        22.484966580938
  H        49.0817252431       18.5517725934       10.8668670639
  H        10.4157784393       14.1344004665        7.9990243059
  H        24.4673582144        3.0218087853        19.889969024738
  H        25.5948159708        4.8747213316        18.643041810138
  H        23.1894557879        7.7474336377        20.755260043538
  H        22.0829089051        5.8849605463        22.006467131038
  H        23.8238053121        5.7754196159        17.175632622138
  H        36.3747848185       32.1848028865        19.953496891138
  H        35.2429026770       30.3647876740        18.677318200138
  H        37.4955525871       27.4344299888        20.877267767438
  H        38.6082529157       29.2674325902        22.162183880338
  H        37.0072686460       29.4428576431        17.259002289238
  H        25.6554013064        8.6063785324        20.600896602538
  H        36.4507343385       32.2368458567       12.1117739110
  H        35.3334855102       30.4196570470       13.4009366647
  H        37.5150921361       27.4833003780       11.1367266944
  H        38.6071658307       29.3123747184        9.8347305505
  H        37.0288078318       29.4607639647       14.8216637714
  H        46.1098759948       26.5881463244       11.3855632822
  H        44.6681509176       35.1160590510        23.804019544738
  H        24.4763719354        3.0233242937       12.0470151858
  H        25.6527104352        4.8500284291       13.2730070390
  H        23.2770931967        7.7662885897       11.1883780451
  H        22.1122196333        5.9276556745        9.9617378504
  H        23.8596605130        5.7747148288       14.7373366667
  H        44.9532405289       34.3896792852        9.6946406905
  H        44.9014720302       34.2068546321        22.480399910938
  H        40.6651118173       33.2085508953       10.8528724533
  H        23.1508007315        1.9578141131        8.0011207105
  H        25.7693894867       19.6488725225        19.928193271438
  H        23.6084524825       19.7047510618        18.683020977738
  H        22.2987422301       16.2031294433        20.809599421238
  H        24.4673845566       16.1597329483        22.053895728738
  H        23.7034355358       17.6916797808        17.229713289838
  H        35.1108577850       15.4810455882        19.959741902038
  H        37.2375093264       15.4160654130        18.657366079138
  H        38.7028088585       18.7792411839        20.905144540338
  H        36.5769584383       18.8172303960        22.217506061438
  H        37.2102435536       17.3825904994        17.242876887038
  H        20.3215498899       17.9631833567        20.639595422238
  H        35.1302150544       15.3931841250       12.1735491645
  H        37.2843662783       15.3523786703       13.4194455648
  H        38.6569552228       18.7417298019       11.1537003769
  H        36.4950190630       18.7682380743        9.9018700986
  H        37.2126031393       17.3693688745       14.8067215054
  H        35.1305476650       26.6772592999       11.3891209822
  H        28.5038852317       21.0829462998        23.862725393938
  H        25.7261182518       19.6695210136       12.1148131964
  H        23.5437255064       19.7253919586       13.3293975845
  H        22.3095223382       16.1600674821       11.2650527198
  H        24.4969715422       16.1178992430       10.0505745081
  H        23.6928892752       17.6852687262       14.7915839644
  H        28.9787774919       21.7229121248        9.7590553284
  H        29.2012845719       21.6978263536        22.535180264838
  H        32.1567734086       18.6340406649       10.9210367329
  H        27.3683996714       19.0285613776        8.0773178472
  H        14.8529302061       19.6696579274       12.1092420914
  H        17.0208356429       19.7232312572       13.3472403977
  H        18.2988680126       16.1932337325       11.2489228894
  H        16.1275537808       16.1557866194       10.0099181532
  H        16.9090917759       17.7194250541       14.8151534628
  H        46.0716030688       15.4343032639       12.0621357307
  H        43.9419965732       15.3675168187       13.3552806349
  H        42.5260905737       18.7981817425       11.1801451694
  H        44.6565636593       18.8399270108        9.8767469976
  H        43.9966125852       17.3169509900       14.8106545565
  H        20.2916794504       17.9324900680       11.4046043569
  H        46.0430548210       15.3938122368        20.010592575038
  H        43.9144086669       15.3293843696        18.714084060738
  H        42.5165719129       18.7902754712        20.851729698838
  H        44.6517177688       18.8404570728        22.149646586438
  H        43.9932931164       17.3041159025        17.249011339338
  H        46.1997081224       26.6829552541        20.613113899138
  H        52.7412999737       21.0627145838        8.1946194110
  H        14.8625810393       19.6774881457        19.894327520238
  H        17.0572264300       19.7523037303        18.698803360338
  H        18.3120090951       16.2111320120        20.791725185338
  H        16.1198879445       16.1606373856        21.997803622038
  H        16.9194532286       17.7278469205        17.253577242338
  H        52.3227225437       21.6737715487        22.284407153538
  H        52.0139112070       21.7028874597        9.4955637723
  H        49.0675594420       18.6081235477        21.193989684638
  H        13.2471558931       19.0162963509        23.965871651038
  H        30.0101246331       12.5544267066       12.2918848083
  H        28.9846425427       10.5918303146       13.4495821957
  H        25.3925866682       11.1070883454       11.1401534627
  H        26.4366316382       13.0505488235        9.9734576937
  H        27.2425383433       11.6535108024       14.7892241265
  H        31.0034131080       22.7266457360       12.0212483423
  H        32.0046204725       24.5992652532       13.3299319656
  H        35.6711528269       24.1680748433       11.1215381484
  H        34.6504325054       22.3042630580        9.8061942831
  H        33.6844377430       23.5601494938       14.7535087249
  H        25.8638182546        8.5677908264       11.3688508542
  H        30.9223859847       22.6667590862        19.864327557438
  H        31.9435635576       24.5451666502        18.581321813638
  H        35.5516500279       24.1485579474        20.890682642938
  H        34.5086114625       22.2832619814        22.182616102738
  H        33.6530859098       23.5484019416        17.190615710438
  H        40.5960843224       17.0744062943        20.642968001638
  H        32.5251164267       14.1510948948        8.1458944049
  H        29.8515136664       12.4833891547        19.963770165238
  H        28.8373590791       10.5900876737        18.695065010038
  H        25.1243390678       11.1909057766        20.780700916438
  H        26.1570647003       13.0776721384        22.056055006238
  H        27.1706058657       11.6735680032        17.223333997238
  H        33.2927200407       14.2489127272        22.349683570038
  H        33.4090132762       14.3022512517        9.5503314977
  H        32.0336988690       18.4846976259        21.066827226938
  H        30.2085444228       14.1387569432        8.0876205781
  H        16.1177911814        2.9626673175       12.1288596936
  H        14.9519899868        4.8192690361       13.3216432642
  H        17.3648154348        7.6856774148       11.2101791474
  H        18.5142635366        5.8186090163       10.0104355017
  H        16.7517144693        5.7384463176       14.7712375193
  H        44.8277882662       32.1404739283       11.9771121772
  H        45.9372527123       30.3417369564       13.3066187099
  H        43.6829206842       27.3782399328       11.1523505841
  H        42.5999822205       29.1899924044        9.8097145604
  H        44.2303101876       29.4367154841       14.7689195676
  H        14.8498409947        8.5456036870       11.3631679857
  H        44.8994330828       32.2341898822        19.921293693638
  H        46.0244122019       30.4132599341        18.641715950938
  H        43.7642648587       27.4841026744        20.835680703738
  H        42.6463717245       29.3177157374        22.114779956338
  H        44.2683770265       29.4704202434        17.208014367038
  H        35.0403866738       26.6231074005        20.619920654038
  H        36.6052331649       35.1338860968        8.1807129637
  H        16.1430205101        3.0129207753        19.894928051338
  H        14.9733233800        4.8561805185        18.679206215338
  H        17.3973976682        7.7471212074        20.743581789938
  H        18.5443663070        5.8933072328        21.971436658038
  H        16.7634778322        5.7546714212        17.208762422438
  H        36.2791599371       34.4818867321        22.263057469938
  H        36.3807955209       34.2091822453        9.4999086435
  H        40.5796738014       33.2026862147        21.143745116238
  H        17.4714722621        1.9473430179        23.963919748238
  H        28.6659807643       18.9077331358       12.2619262265
  H        28.7622053874       18.8335253988        19.724648694138
  H        30.7810977736       15.3675346602        19.746241063738
  H        32.5018697454       16.3580163846       12.7027005700
  H        18.8532845842        0.8690133827       12.3350868816
  H        40.5282262157       35.2289636402        19.941919911238
  H        42.3235603017       34.4186487633        19.580418244538
  H        22.0872850584        0.6922244703       12.3518675995
  H        11.5967444862       18.7126133100       12.3824860389
  H        52.2652012891       18.4312691464        19.667794475138
  H        49.2550642779       16.4765320761        19.573977200838
  H        10.1502459813       15.7982483818       12.2923783086
  H        50.8503016078       17.6928305826        19.943752845738
  H        10.0460019705       17.3948927737       12.0518702659
  H        20.2143423917        0.0020227551       12.0420735521
  H        39.1834473709       36.1241578589        19.676061466538
 Ni        30.3984418955       17.4968047359        18.655966954338
 Ni        31.1985450581       16.1117428977       14.735943940638
 Ni        30.1418890426       17.3038818670        16.239774263338
 Ni        30.5607321878       17.7031764587       12.9916389875
  O        10.6497986967       14.3652080393        21.475591381538
  O        12.6130109299       14.6574180896        22.573662797438
  O        49.1473924258       16.8459128444        23.979600835738
  O        50.3501106841       20.9360758331        21.638015315938