     566
 i =       56, E =     -4712.3000148556
  C        11.8585413748       14.0535179251        21.731373593938
  C        12.4559924819       12.8904742911        21.013052313738
  C        11.7043987077       12.1719095878        20.071056431138
  C        12.2806925008       11.1096669648        19.378677330438
  C        13.6211039324       10.7394795251        19.606712965538
  C        14.3541486325       11.4426588922        20.580562864038
  C        13.7813235081       12.5076486504        21.272106398838
  C        14.2605924343        9.6487916461        18.833321265238
  C        14.2559345148        9.6566929413        17.411614011838
  C        13.7428701905       10.7588401077        16.657670602438
  C        49.1264900029       21.2334007122        21.869593903838
  C        48.5496015048       22.4011784978        21.142468582238
  C        49.2997096105       23.0686464258        20.161621117038
  C        48.7327349151       24.1076990479        19.428362107538
  C        47.4020984278       24.5091264155        19.656804463938
  C        46.6710233529       23.8600529459        20.670099050138
  C        47.2335134259       22.8152073814        21.399510593538
  C        46.7719179522       25.5868269057        18.859500017038
  C        46.7610883250       25.5572951894        17.437738405438
  C        47.2610581212       24.4422106203        16.694259200038
  C        14.8597619676        8.5702792649        16.698364232538
  C        14.8912544615        8.5967673937        19.509971108238
  C        49.1129062590       21.2034500922       10.1453519111
  C        48.5274736160       22.3647353543       10.8724810277
  C        49.2667710446       23.0256400752       11.8652266226
  C        48.6903950916       24.0601540907       12.5966842915
  C        47.3598794287       24.4566908185       12.3586119320
  C        46.6393627253       23.8115529751       11.3353126090
  C        47.2129612066       22.7756751128       10.6035218717
  C        46.7214576476       25.5316695923       13.1496303358
  C        46.7333286826       25.5281085466       14.5713282531
  C        47.2487996341       24.4289111129       15.3277076099
  C        40.6172972713       17.0837213576       15.3090492947
  C        40.6270468862       17.1058751231       12.4988927960
  C        11.8827128682       14.0864099660       10.2854332468
  C        12.4717859049       12.9103139549       10.9895039260
  C        11.7142947533       12.1775688881       11.9159837468
  C        12.2806787239       11.0950140575       12.5844266352
  C        13.6192754689       10.7207232475       12.3522421097
  C        14.3571408969       11.4357245007       11.3909289659
  C        13.7919158512       12.5169934733       10.7182256973
  C        14.2528272834        9.6239955560       13.1227214360
  C        14.2518268872        9.6441457877       14.5445669476
  C        13.7421866065       10.7532144011       15.2916223443
  C        22.5077284130        3.2428097444        21.741584332838
  C        23.2149635866        4.3481821699        21.036550069438
  C        24.2094434172        4.0686341878        20.088013569838
  C        24.8302944386        5.1088288957        19.401998829438
  C        24.4710756518        6.4491810245        19.645204144138
  C        23.5037839309        6.7203864228        20.629686911538
  C        22.8785912623        5.6820507775        21.314245103938
  C        25.0741722646        7.5559667700        18.869984672438
  C        25.0525269062        7.5481301247        17.448785880038
  C        24.3538621777        6.5481289453        16.700469852538
  C        38.2978330951       31.9280225163        21.841622084938
  C        37.5557404089       30.8403180958        21.140231034438
  C        36.5898330003       31.1489473525        20.169743418538
  C        35.9580675985       30.1323375059        19.458701543038
  C        36.2767209704       28.7804268321        19.694334773238
  C        37.2120885752       28.4792546027        20.702523491538
  C        37.8477602376       29.4948617403        21.413242809838
  C        35.6642089505       27.6935160032        18.895514235038
  C        35.7014685986       27.7090441925        17.473701042138
  C        36.4143541584       28.7091916626        16.739889933538
  C        25.6789915522        8.6174956199        16.731506236638
  C        25.6670190703        8.6312355960        19.543188399938
  C        38.3297076681       31.9598622353       10.1605770748
  C        37.6121794375       30.8869249495       10.9095260244
  C        36.6779455582       31.1966600704       11.9103005352
  C        36.0666957512       30.1801215167       12.6425100737
  C        36.3741556813       28.8260212698       12.3994591966
  C        37.2892959383       28.5262392853       11.3712568890
  C        37.9022376195       29.5393276325       10.6398323429
  C        35.7577991362       27.7283658182       13.1820467006
  C        35.7492279573       27.7268789720       14.6049003274
  C        36.4356238279       28.7188461924       15.3734563551
  C        46.1353524741       26.6207656097       15.2814494088
  C        46.0873737185       26.5799323129       12.4735616881
  C        22.4605897743        3.2544943749       10.2551920624
  C        23.1558637013        4.3634752871       10.9748666014
  C        24.1621151318        4.0778331247       11.9109856008
  C        24.7905871748        5.1087821938       12.6046610407
  C        24.4317703223        6.4533415318       12.3840333744
  C        23.4490596646        6.7325116031       11.4159191066
  C        22.8161819193        5.7017782943       10.7224992601
  C        25.0603683273        7.5508998578       13.1591309026
  C        25.0464796448        7.5446527913       14.5812884743
  C        24.3487797984        6.5478028544       15.3339806069
  C        26.5661060341       17.8257886962        21.775175696538
  C        25.2642529741       17.8849253151        21.048123479638
  C        25.0122279591       18.8910990407        20.103084463338
  C        23.8032796142       18.9191946789        19.412077890738
  C        22.8135134282       17.9437919080        19.645901419538
  C        23.0604777017       16.9611092431        20.622373185038
  C        24.2708887821       16.9285403591        21.311407947738
  C        21.5471582892       17.9354712590        18.875283875238
  C        21.5556939473       17.9248412842        17.453560511838
  C        22.7657323561       17.8063803631        16.699447791738
  C        34.4110140483       17.2191085350        21.868133879938
  C        35.7126557627       17.1545581414        21.141140367238
  C        35.9166188512       16.1850509429        20.146818527938
  C        37.1039147681       16.1603491619        19.420897483238
  C        38.1188573984       17.1060513571        19.665713024138
  C        37.9187338843       18.0535708401        20.687922106238
  C        36.7300110462       18.0816235387        21.414108135038
  C        39.3732662672       17.1100469991        18.878474901338
  C        39.3657323333       17.1158958394        17.456046170738
  C        38.1572393643       17.2375253471        16.700269644738
  C        20.3127623191       17.9476510207        16.740089981238
  C        20.3209709571       17.9313787976        19.552807264138
  C        34.4347516235       17.2401771207       10.1826369218
  C        35.7340095590       17.1435579094       10.9103325308
  C        35.9420735425       16.1611259570       11.8899945428
  C        37.1326168526       16.1300426720       12.6124196941
  C        38.1458665585       17.0796445919       12.3750868939
  C        37.9440064304       18.0355293092       11.3617152972
  C        36.7524502934       18.0720196435       10.6431205107
  C        39.3968949573       17.0922146333       13.1669148812
  C        39.3779851261       17.1060941292       14.5885998600
  C        38.1630295057       17.2304732262       15.3336392170
  C        35.1082467262       26.6512631334       15.3060489271
  C        35.1756802745       26.6541059544       12.4961469391
  C        26.5728862559       17.8286629691       10.3278687897
  C        25.2580133009       17.8804972304       11.0324989119
  C        24.9921925726       18.8949761388       11.9644995482
  C        23.7737896879       18.9258784212       12.6369543062
  C        22.7923086685       17.9435752267       12.3979501827
  C        23.0520218268       16.9544882053       11.4324557392
  C        24.2716141490       16.9205885809       10.7597682130
  C        21.5264691491       17.9308270227       13.1659636754
  C        21.5444863722       17.9217120218       14.5869566011
  C        22.7599267805       17.8049652729       15.3333586572
  C        14.0458776410       17.8320902594       10.2841389484
  C        15.3528326101       17.8973806100       11.0013882226
  C        15.6114662428       18.9113425218       11.9364986034
  C        16.8221989642       18.9390385436       12.6250565076
  C        17.8058804733       17.9554524787       12.3995295758
  C        17.5531359483       16.9669102203       11.4302475913
  C        16.3419176711       16.9349062699       10.7429652902
  C        19.0720325556       17.9409101425       13.1707373522
  C        19.0633707857       17.9367092009       14.5925292317
  C        17.8520681973       17.8379459411       15.3470292458
  C        46.8015031855       17.2161771475       10.1569911446
  C        45.5075248124       17.1458275344       10.8968463304
  C        45.3009062898       16.1608727957       11.8754150081
  C        44.1164401876       16.1328614654       12.6071446645
  C        43.1069001494       17.0897448778       12.3838555749
  C        43.3101234605       18.0533827221       11.3772268844
  C        44.4954164478       18.0851739763       10.6460007002
  C        41.8534576073       17.0941688412       13.1742299058
  C        41.8623851378       17.0946594078       14.5967452383
  C        43.0729030393       17.1902975212       15.3530437761
  C        20.3065662053       17.9452750142       15.3060579800
  C        20.2981606183       17.9202087715       12.4934619054
  C        46.7837994365       17.2321447090        21.876209456638
  C        45.4820400426       17.1264778826        21.156627143038
  C        45.2646454741       16.1255453893        20.197247482838
  C        44.0773340125       16.0954821633        19.469511828738
  C        43.0765007226       17.0635488226        19.682728359238
  C        43.2851407581       18.0355490954        20.679338119238
  C        44.4733733386       18.0716708595        21.402696167738
  C        41.8284864294       17.0804057881        18.886908189738
  C        41.8497574672       17.0864659811        17.465299443838
  C        43.0669552699       17.1835866623        16.719943707638
  C        46.1531270322       26.6372008717        16.715989484038
  C        46.1618889207       26.6558902410        19.525632551838
  C        14.0397743467       17.8285207174        21.696292193438
  C        15.3539238713       17.8980839299        20.996304369538
  C        15.6236577158       18.9203552982        20.074609632738
  C        16.8478339911       18.9580410183        19.412157571238
  C        17.8266337630       17.9723582633        19.647322905838
  C        17.5625232824       16.9760249640        20.604150808238
  C        16.3405597004       16.9380992137        21.270468222438
  C        19.0929359178       17.9541691197        18.880135157338
  C        19.0744824069       17.9426091798        17.459109860738
  C        17.8575333421       17.8405080572        16.713120753838
  C        28.8117406785       14.0891510610       10.3933470476
  C        28.1982136782       12.9152843646       11.0791538408
  C        28.9255270339       12.1623836157       12.0127516657
  C        28.3246324983       11.0881791884       12.6642174575
  C        26.9836850072       10.7419267359       12.4026308944
  C        26.2782005191       11.4738214075       11.4311857511
  C        26.8761040857       12.5495861330       10.7802851838
  C        26.3132241142        9.6616967941       13.1611760270
  C        26.2961868362        9.6881269507       14.5815846130
  C        26.7996795033       10.8002299268       15.3282826339
  C        32.1809541329       21.2335845960       10.1431616652
  C        32.7771184900       22.3961825993       10.8685360740
  C        32.0216175344       23.0854930648       11.8299605182
  C        32.5884836993       24.1266870124       12.5589669361
  C        33.9278256921       24.5087195237       12.3489955188
  C        34.6669267103       23.8375886524       11.3563200871
  C        34.1020061519       22.7909264677       10.6288033860
  C        34.5502010571       25.5876163889       13.1521322579
  C        34.5227941527       25.5661030807       14.5743653050
  C        34.0015876933       24.4557351927       15.3110882529
  C        25.6810885073        8.6118225985       15.2976597089
  C        25.6783248112        8.6123219218       12.4849111114
  C        32.0696558542       21.2017214237        21.867805061838
  C        32.6392449270       22.3695824745        21.130975006938
  C        31.9032536387       23.0202214607        20.128721055838
  C        32.4743555354       24.0606715136        19.397774384238
  C        33.7960103619       24.4806651094        19.648373662538
  C        34.5126583879       23.8444739656        20.680522091038
  C        33.9466369177       22.8006106808        21.407318749038
  C        34.4365144746       25.5648208849        18.865810014738
  C        34.4631967196       25.5550305583        17.443131649938
  C        33.9716525924       24.4509669494        16.677641568438
  C        40.6105602826       17.0841920536        16.744210686038
  C        40.5988006101       17.1090987073        19.554718154038
  C        28.7317186249       14.0629049055        21.776449447538
  C        28.1146684892       12.9172639021        21.047891066538
  C        28.8521963165       12.2001952602        20.093204343638
  C        28.2652013754       11.1450110995        19.400683982638
  C        26.9254802059       10.7801654126        19.639505895838
  C        26.2050983121       11.4817843997        20.623794247838
  C        26.7903933782       12.5386009177        21.317947651438
  C        26.2817489490        9.6920617680        18.867230726238
  C        26.2803069088        9.7046455219        17.445969099338
  C        26.7893557548       10.8098261554        16.693940588638
  C        18.1351637671        3.1807152590       10.3171876349
  C        17.4055860325        4.2778728925       11.0157418462
  C        16.3901321901        3.9993195891       11.9434814744
  C        15.7421939359        5.0391834499       12.6069642795
  C        16.0936269592        6.3829803855       12.3670397306
  C        17.0826634622        6.6526849440       11.4029679875
  C        17.7319510575        5.6154596804       10.7379312892
  C        15.4692398387        7.4906302633       13.1300839091
  C        15.4847301019        7.4900889339       14.5517955020
  C        16.1863795291        6.4965467426       15.3049740253
  C        42.9457401570       31.8593673823       10.0728282376
  C        43.6460201276       30.7717031080       10.8167469056
  C        44.5916545077       31.0929883693       11.8027399454
  C        45.1972874830       30.0874140752       12.5503990446
  C        44.8706718459       28.7343754568       12.3356386395
  C        43.9447059415       28.4200715666       11.3225444226
  C        43.3359669263       29.4252403857       10.5744816744
  C        45.4882643791       27.6551024380       13.1388392093
  C        45.4925848061       27.6808491388       14.5605262317
  C        44.8055132946       28.6889125583       15.3071402259
  C        14.8558627324        8.5626569986       15.2641358244
  C        14.8738356558        8.5623148394       12.4514748292
  C        42.9463426297       31.9613961941        21.798781582938
  C        43.6914628214       30.8852994417        21.085283533138
  C        44.6562483241       31.1911988416        20.113155065338
  C        45.2776938980       30.1716043136        19.395398442338
  C        44.9536501719       28.8213066075        19.632821158538
  C        44.0198955082       28.5236438557        20.643344688538
  C        43.3916945658       29.5404169897        21.355559044738
  C        45.5627089954       27.7239366107        18.847566401938
  C        45.5331348425       27.7173420041        17.426272687638
  C        44.8268096408       28.7075694179        16.673323598238
  C        35.0807009455       26.6440136571        16.741624700038
  C        35.0492696150       26.6212745823        19.552206916438
  C        18.1483200300        3.2467844254        21.696393596338
  C        17.4296003228        4.3435883484        20.987082659538
  C        16.4145249992        4.0522572610        20.063397676738
  C        15.7661293044        5.0828570161        19.388021388738
  C        16.1205814123        6.4281280738        19.610859658138
  C        17.1117890616        6.7115646472        20.568281569238
  C        17.7595124022        5.6826872270        21.248047697738
  C        15.4900889900        7.5238215142        18.838406756938
  C        15.4959829386        7.5071843511        17.417269842938
  C        16.1927008617        6.5054484829        16.670577662838
  H        10.6723890667       12.4663440349        19.893819287438
  H        11.6944281668       10.5514302487        18.651929121438
  H        15.3910289130       11.1676934360        20.762596298238
  H        14.3506217811       13.0705180924        22.007944784938
  H        13.3759724438       11.6310313165        17.190950492738
  H        50.3224861616       22.7487509044        19.977037566038
  H        49.3192279865       24.6230797671        18.670871837338
  H        45.6414070508       24.1605548294        20.853024938638
  H        46.6623794013       22.2897915027        22.161397352538
  H        47.6294806328       23.5757834616        17.235943977038
  H        14.8714915075        8.5879746565        20.598276429738
  H        50.2868818737       22.7029354353       12.0600152266
  H        49.2687874275       24.5757539395       13.3600875415
  H        45.6098337113       24.1085084598       11.1464705089
  H        46.6520068580       22.2533028054        9.8321943434
  H        47.6074803021       23.5517453760       14.7968205371
  H        40.6303442237       17.0734822820       11.4109943522
  H        48.6869639242       14.0950624408        23.789778077038
  H        10.6809953074       12.4670893239       12.0936698445
  H        11.6888781829       10.5249721875       13.2973994672
  H        15.3923759667       11.1573420622       11.2046447277
  H        14.3641713294       13.0859669808        9.9893193020
  H        13.3753751840       11.6218191586       14.7529597535
  H        47.9299832694       14.2185355995        9.7106848028
  H        47.7798813856       14.3737054347        22.485027362638
  H        49.0818214525       18.5517556404       10.8669413634
  H        10.4155504083       14.1343590884        7.9988101537
  H        24.4734427462        3.0303901205        19.899640518238
  H        25.6027392927        4.8935977875        18.666890997438
  H        23.2197780889        7.7528736229        20.822246314238
  H        22.1096094597        5.8800336558        22.056876430338
  H        23.7904579564        5.7916678035        17.239011739838
  H        36.3589437346       32.1934478276        19.974278923738
  H        35.2099241693       30.3768220576        18.707800017238
  H        37.4662531003       27.4386083086        20.893230549838
  H        38.5951827860       29.2682497752        22.169983761038
  H        36.9765249922       29.4589509251        17.288883625938
  H        25.6976121756        8.6146435733        20.631113823438
  H        36.4497255950       32.2409816592       12.1112545886
  H        35.3357832624       30.4283985419       13.4089307516
  H        37.5412640907       27.4859798217       11.1758424540
  H        38.6290296329       29.3101204745        9.8642476786
  H        37.0149176229       29.4757055867       14.8523952044
  H        46.1085697175       26.5871894885       11.3855211486
  H        44.6680965462       35.1160751187        23.803839668238
  H        24.4415268354        3.0397913635       12.0764156439
  H        25.5741385154        4.8820707206       13.3245373782
  H        23.1616484014        7.7667375816       11.2377814061
  H        22.0411008991        5.9125059146        9.9893102494
  H        23.7810079963        5.7915753320       14.7997185924
  H        44.9533150936       34.3898435891        9.6948184480
  H        44.9015911475       34.2066863979        22.480475197438
  H        40.6656349697       33.2082988264       10.8529025578
  H        23.1500908259        1.9573918160        8.0045469180
  H        25.7734804256       19.6474902176        19.927265747438
  H        23.6092955159       19.7047404343        18.684915350138
  H        22.3051819089       16.2006108364        20.809693608938
  H        24.4759568322       16.1576455658        22.050410659738
  H        23.7037507968       17.6835296073        17.233188837338
  H        35.1256225282       15.4653902170        19.949711036538
  H        37.2597821341       15.4011105291        18.657677274738
  H        38.6936826426       18.7921442325        20.882488385038
  H        36.5600521342       18.8289140907        22.185782511238
  H        37.2192166532       17.3697940883        17.231891068038
  H        20.3229517844       17.9623971456        20.640898288938
  H        35.1540050355       15.4370847606       12.0831225559
  H        37.2904681741       15.3651084785       13.3695881249
  H        38.7185469017       18.7757138362       11.1718408033
  H        36.5777186755       18.8283160081        9.8817046921
  H        37.2293627263       17.3563584256       14.7929894852
  H        35.1625840249       26.6749518782       11.4080334842
  H        28.4929589877       21.0749227814        23.870093412138
  H        25.7521440435       19.6530777276       12.1402501863
  H        23.5658014811       19.7160140842       13.3552544947
  H        22.3010317958       16.1902658894       11.2429355092
  H        24.4891451962       16.1460404705       10.0282661604
  H        23.6934761994       17.6816376957       14.7925868686
  H        29.0269783652       21.7111539638        9.7268727320
  H        29.2203870729       21.6827746074        22.556022187038
  H        32.0809760769       18.5510574083       10.9197448805
  H        27.3666331972       19.0179847811        8.0805357369
  H        14.8527436929       19.6714122507       12.1087509692
  H        17.0206721663       19.7295680687       13.3456046986
  H        18.3040893970       16.2007978498       11.2484740338
  H        16.1325040729       16.1588772510       10.0106198657
  H        16.9120149125       17.7271568065       14.8145122720
  H        46.0860875261       15.4306429141       12.0566472074
  H        43.9590165672       15.3614839385       13.3578430262
  H        42.5395880569       18.8005992394       11.1988354754
  H        44.6668538358       18.8442954416        9.8863222459
  H        44.0137201337       17.3014503960       14.8216099917
  H        20.2967196807       17.9485340984       11.4052928303
  H        46.0416452479       15.3845137742        20.023788350938
  H        43.9124263911       15.3174786928        18.727263151538
  H        42.5184522403       18.7882134590        20.851064082338
  H        44.6537614774       18.8408775181        22.149642766038
  H        44.0033605184       17.2885368814        17.260261918338
  H        46.1985032278       26.6823104447        20.613087958838
  H        52.7410692274       21.0625829005        8.1946036273
  H        14.8647154834       19.6788116178        19.896082278338
  H        17.0597201160       19.7539176564        18.701426486938
  H        18.3114729320       16.2089509937        20.789861520938
  H        16.1190076014       16.1584691284        21.995210070538
  H        16.9215468000       17.7316121087        17.252824225938
  H        52.3219822990       21.6734625384        22.284617172338
  H        52.0131504433       21.7022525115        9.4954509990
  H        49.0669435064       18.6078315536        21.194223818338
  H        13.2470451834       19.0166160859        23.965799856138
  H        29.9603913175       12.4325127912       12.2110525351
  H        28.8886023581       10.5032358006       13.3876350947
  H        25.2421555356       11.2149455281       11.2226523355
  H        26.3294118386       13.1369209031       10.0467318025
  H        27.1677229258       11.6671928715       14.7879887574
  H        30.9918816105       22.7811785965       12.0002576217
  H        31.9958131421       24.6592253467       13.2995608872
  H        35.7037361280       24.1213743169       11.1874896586
  H        34.6790832060       22.2497128837        9.8824551834
  H        33.6505242216       23.5852816324       14.7642437309
  H        25.7110315527        8.5937059154       11.3969879269
  H        30.8879115707       22.6875130683        19.925176670838
  H        31.8956057956       24.5638767397        18.626264532038
  H        35.5356619643       24.1555056736        20.881907135438
  H        34.5087344845       22.2883715001        22.184533760238
  H        33.5976603767       23.5764645232        17.202613019238
  H        40.5944855811       17.0774316475        20.642615247838
  H        32.5082557417       14.1545042298        8.2382115232
  H        29.8883247232       12.4781659259        19.914946796538
  H        28.8428920289       10.5843669143        18.669008109438
  H        25.1686884214       11.2105336905        20.814034515538
  H        26.2321627229       13.0979794986        22.064941007738
  H        27.1478311498       11.6847610628        17.228509395938
  H        33.2971591412       14.2201337379        22.425465184138
  H        33.4055571221       14.4123498263        9.5920703497
  H        32.0221419916       18.5081954919        21.066008651238
  H        30.2073123833       14.1449332585        8.0798396180
  H        16.1184409824        2.9627489387       12.1300661044
  H        14.9529235379        4.8196287177       13.3227705874
  H        17.3646218989        7.6856390513       11.2095878606
  H        18.5136566303        5.8182203371       10.0097600201
  H        16.7528548135        5.7391441553       14.7714790606
  H        44.8280518228       32.1400509168       11.9768605852
  H        45.9372075850       30.3410880655       13.3063140225
  H        43.6817871391       27.3780363921       11.1525599960
  H        42.5992432581       29.1898970677        9.8099194056
  H        44.2300415156       29.4365933540       14.7688414854
  H        14.8498428140        8.5453928459       11.3632617364
  H        44.8999706086       32.2338649088        19.921869325038
  H        46.0247205337       30.4127696040        18.642263530838
  H        43.7625902672       27.4839474459        20.834634703738
  H        42.6449413186       29.3175871119        22.113746196338
  H        44.2682050228       29.4703884013        17.207904308238
  H        35.0030301624       26.6332269785        20.639563215538
  H        36.6051012202       35.1338987643        8.1805653108
  H        16.1435944835        3.0126521640        19.893581083938
  H        14.9738772894        4.8559382732        18.677876684938
  H        17.3950569863        7.7470693755        20.745333182538
  H        18.5421858867        5.8931599925        21.973018740238
  H        16.7641237993        5.7552032531        17.209018641438
  H        36.2786846645       34.4820758545        22.263289682838
  H        36.3804970256       34.2090919883        9.4996791209
  H        40.5787378978       33.2013439619        21.144297196538
  H        17.4705296497        1.9469455491        23.963786229038
  H        29.2649453940       19.4539725653       12.5340312591
  H        28.9050929317       19.1704971768        19.680182239038
  H        30.6313104548       15.4791507839        19.735879136338
  H        31.5214515189       15.7258472418       12.5575618894
  H        28.1854887675       17.9857722206       14.3939364321
  H        29.7788377256       15.4296580194       14.3984042017
  H        18.8524224321        0.8686833605       12.3349836173
  H        40.5280810293       35.2289290483        19.942031326138
  H        42.3227577647       34.4175963409        19.580988283938
  H        22.0874304396        0.6918015869       12.3515320897
  H        11.5967889708       18.7127231004       12.3824597924
  H        52.2645699206       18.4311155924        19.667385451538
  H        49.2546803459       16.4768175211        19.574323761338
  H        10.1502754951       15.7983002215       12.2927163905
  H        50.8496356385       17.6926268622        19.943894790038
  H        10.0459167666       17.3947073495       12.0519704629
  H        20.2134430643        0.0018195867       12.0421252770
  H        39.1835035024       36.1241875540        19.676090672238
 Ni        30.2708255359       17.5718634070        18.656969973738
 Ni        30.5255134701       16.4897657546        16.403351233038
 Ni        29.5429976290       18.4327360215        16.321971405038
 Ni        30.1864101693       17.4704547949       13.2415765480
  O        10.6498613980       14.3651710217        21.475580263438
  O        12.6130841925       14.6574208177        22.573678213838