     566
 i =      379, E =     -4712.3062761615
  C        11.8585410077       14.0535141775        21.731377545638
  C        12.4559868041       12.8904674882        21.013052429738
  C        11.7043929892       12.1719067444        20.071053720238
  C        12.2806874527       11.1096673634        19.378669761038
  C        13.6210989223       10.7394802381        19.606707045338
  C        14.3541329323       11.4426342930        20.580583138838
  C        13.7813056321       12.5076193303        21.272132282438
  C        14.2605811771        9.6487871204        18.833317144238
  C        14.2559251673        9.6566892675        17.411609045038
  C        13.7428746301       10.7588403363        16.657660437638
  C        49.1264951637       21.2334039597        21.869600078138
  C        48.5496001182       22.4011671902        21.142454687838
  C        49.2997099723       23.0686490360        20.161616911138
  C        48.7327347535       24.1077086813        19.428367206738
  C        47.4020848503       24.5091060858        19.656785940738
  C        46.6710094519       23.8600226833        20.670072973938
  C        47.2335029990       22.8151771724        21.399481514438
  C        46.7719055230       25.5868184088        18.859495424138
  C        46.7610795237       25.5572898110        17.437734347038
  C        47.2610396843       24.4422003403        16.694257205038
  C        14.8597487171        8.5702750340        16.698356348938
  C        14.8912489168        8.5967646575        19.509965447738
  C        49.1129104262       21.2034448310       10.1453564029
  C        48.5274837568       22.3647305783       10.8724881686
  C        49.2667644091       23.0256109297       11.8652603236
  C        48.6903900456       24.0601304828       12.5967108719
  C        47.3598885295       24.4566951982       12.3586075055
  C        46.6393819840       23.8115661921       11.3352957354
  C        47.2129809830       22.7756853949       10.6035115945
  C        46.7214570839       25.5316699786       13.1496241407
  C        46.7333268189       25.5281044045       14.5713227848
  C        47.2487840210       24.4289032193       15.3277060022
  C        40.6175057144       17.0841126173       15.3091176342
  C        40.6273119111       17.1075699343       12.4989377557
  C        11.8827109219       14.0864054979       10.2854243522
  C        12.4717816795       12.9103118151       10.9895020435
  C        11.7142836208       12.1775517376       11.9159623115
  C        12.2806592673       11.0949936939       12.5844074728
  C        13.6192576693       10.7207056697       12.3522304784
  C        14.3571307912       11.4357136320       11.3909296876
  C        13.7919090503       12.5169855340       10.7182302605
  C        14.2528119457        9.6239847577       13.1227162152
  C        14.2518027967        9.6441280908       14.5445614500
  C        13.7421852094       10.7532101441       15.2916117580
  C        22.5077813304        3.2427479816        21.741612020138
  C        23.2152594919        4.3479851592        21.036601509938
  C        24.2098867849        4.0681333432        20.088311996638
  C        24.8310660928        5.1081105476        19.402281098538
  C        24.4719964085        6.4485495754        19.645201461438
  C        23.5045162130        6.7200628369        20.629415607038
  C        22.8790198750        5.6819344286        21.314017073338
  C        25.0754533812        7.5550982289        18.869945638138
  C        25.0542527952        7.5469712182        17.448741420038
  C        24.3554975506        6.5470334039        16.700421538238
  C        38.2977790792       31.9280649495        21.841664760838
  C        37.5555573870       30.8404736475        21.140298425338
  C        36.5896693144       31.1493098760        20.169852754538
  C        35.9577207983       30.1328293646        19.458807621938
  C        36.2761689664       28.7808706811        19.694414160938
  C        37.2115638254       28.4794981560        20.702519016638
  C        37.8474331088       29.4949742326        21.413245215838
  C        35.6634720823       27.6941039827        18.895564481538
  C        35.7008914292       27.7096144094        17.473756619338
  C        36.4139131021       28.7096964696        16.739982329038
  C        25.6810705304        8.6161255905        16.731453307038
  C        25.6680064977        8.6305508364        19.543116253638
  C        38.3297251734       31.9598892971       10.1605744302
  C        37.6122409905       30.8869931774       10.9095536426
  C        36.6779528354       31.1967633507       11.9102649040
  C        36.0667265711       30.1802354247       12.6424921619
  C        36.3742762599       28.8261418188       12.3995169139
  C        37.2894693202       28.5263364519       11.3713704505
  C        37.9023742725       29.5394040781       10.6399050748
  C        35.7579383998       27.7285310860       13.1821333338
  C        35.7491362815       27.7271996995       14.6049808169
  C        36.4353812959       28.7192596610       15.3735510109
  C        46.1353443450       26.6207576535       15.2814461655
  C        46.0873751303       26.5799365118       12.4735604176
  C        22.4605724625        3.2544506159       10.2551637751
  C        23.1559164804        4.3633807962       10.9748321800
  C        24.1624085281        4.0776119634       11.9106425342
  C        24.7910401239        5.1084755982       12.6042750380
  C        24.4320809579        6.4530458733       12.3839559387
  C        23.4490936803        6.7323453692       11.4161627839
  C        22.8160868141        5.7016909523       10.7227480400
  C        25.0609512354        7.5504216316       13.1590513937
  C        25.0478279520        7.5437148224       14.5812151242
  C        24.3502548079        6.5467916854       15.3339388405
  C        26.5663190956       17.8255468606        21.774539110538
  C        25.2644578054       17.8844972344        21.047579711938
  C        25.0120676533       18.8899158606        20.101824459638
  C        23.8030072276       18.9170103160        19.410886767338
  C        22.8135307216       17.9415358124        19.645672207738
  C        23.0608277132       16.9597591330        20.622963735638
  C        24.2713459226       16.9280493277        21.311775449738
  C        21.5470572589       17.9321725653        18.875236582138
  C        21.5555312683       17.9198482214        17.453560448338
  C        22.7655116349       17.7999614375        16.699589199838
  C        34.4113008312       17.2192824716        21.868574143538
  C        35.7128871193       17.1549941711        21.141397276338
  C        35.9167885039       16.1853727534        20.147180795938
  C        37.1040388803       16.1605520571        19.421204901338
  C        38.1189472674       17.1063440303        19.665795177238
  C        37.9188473167       18.0540682955        20.687813632838
  C        36.7301822606       18.0821678597        21.414115969338
  C        39.3733157235       17.1102663486        18.878490078238
  C        39.3658003530       17.1158485705        17.456054450538
  C        38.1572592429       17.2366908858        16.700199313738
  C        20.3126246497       17.9428090646        16.740102254738
  C        20.3208930776       17.9290774197        19.552800948438
  C        34.4350318890       17.2404948911       10.1825261979
  C        35.7343035902       17.1444090348       10.9104481070
  C        35.9441353601       16.1598028070       11.8875236917
  C        37.1346559914       16.1290066369       12.6100035819
  C        38.1461440712       17.0810496803       12.3752003721
  C        37.9425538756       18.0394155786       11.3645817006
  C        36.7509911696       18.0755697259       10.6459435487
  C        39.3972301178       17.0933852148       13.1669804190
  C        39.3782370319       17.1063572485       14.5886280611
  C        38.1631195231       17.2296477367       15.3335657338
  C        35.1080221889       26.6516647304       15.3061179176
  C        35.1761042573       26.6541180655       12.4962337374
  C        26.5731085632       17.8284857857       10.3279731125
  C        25.2583250364       17.8792524545       11.0330867104
  C        24.9921800508       18.8930267906       11.9657886010
  C        23.7737728678       18.9229903283       12.6383693467
  C        22.7925252321       17.9406495916       12.3984743014
  C        23.0525987355       16.9522747163       11.4323799962
  C        24.2722634244       16.9191628025       10.7598015745
  C        21.5265122093       17.9272405334       13.1661938405
  C        21.5444300155       17.9166779723       14.5871370426
  C        22.7597662126       17.7985664717       15.3335031295
  C        14.0458774580       17.8320164717       10.2841667155
  C        15.3528791847       17.8970163763       11.0013767509
  C        15.6117613304       18.9105533131       11.9368768917
  C        16.8225220284       18.9376865510       12.6254506774
  C        17.8059662010       17.9539540291       12.3994988906
  C        17.5530140045       16.9659264718       11.4297511643
  C        16.3417764716       16.9344647855       10.7425095078
  C        19.0720772006       17.9384314165       13.1707677973
  C        19.0633157087       17.9331196575       14.5925422923
  C        17.8519426998       17.8346453778       15.3469839248
  C        46.8015944960       17.2162675022       10.1570406776
  C        45.5077003030       17.1462216642       10.8969973508
  C        45.3008863864       16.1613368269       11.8755807771
  C        44.1164411371       16.1336605764       12.6073377750
  C        43.1071431038       17.0907932509       12.3840213065
  C        43.3105653652       18.0543720774       11.3773882869
  C        44.4958301371       18.0858181196       10.6461338754
  C        41.8537030858       17.0953889002       13.1743318682
  C        41.8625982301       17.0953981329       14.5968356726
  C        43.0730934655       17.1909532292       15.3531865972
  C        20.3064752079       17.9405526622       15.3061178390
  C        20.2982673673       17.9178328126       12.4935547499
  C        46.7838257385       17.2321636746        21.876214019138
  C        45.4820712554       17.1265631464        21.156642447938
  C        45.2646149447       16.1256635573        20.197246191338
  C        44.0772869337       16.0956996772        19.469542949238
  C        43.0765351665       17.0638436112        19.682791210538
  C        43.2852275155       18.0357914197        20.679431484338
  C        44.4734708951       18.0718135799        21.402767512038
  C        41.8285445390       17.0807803700        18.886962060738
  C        41.8498561090       17.0868416340        17.465370663738
  C        43.0670872386       17.1840868735        16.720077772338
  C        46.1531140615       26.6371936148        16.715986742238
  C        46.1618799367       26.6558793628        19.525633488538
  C        14.0397311146       17.8283804641        21.696258924838
  C        15.3538679992       17.8974768664        20.996228896638
  C        15.6238120306       18.9191951221        20.073995578538
  C        16.8480029353       18.9562260290        19.411521468438
  C        17.8265692194       17.9704555119        19.647280517638
  C        17.5622820359       16.9747527039        20.604699396938
  C        16.3402981422       16.9374431143        21.270977660538
  C        19.0928495341       17.9513692211        18.880097925938
  C        19.0743493203       17.9387202214        17.459090623938
  C        17.8573728658       17.8369886696        16.713079399638
  C        28.8116180016       14.0895375083       10.3936164059
  C        28.1978387919       12.9157787476       11.0797386520
  C        28.9264283262       12.1604153989       12.0103689354
  C        28.3256986616       11.0860044806       12.6617103466
  C        26.9837097232       10.7419035625       12.4027567855
  C        26.2767126453       11.4764278464       11.4344414740
  C        26.8744486410       12.5524516402       10.7837652325
  C        26.3138326031        9.6611293208       13.1611145254
  C        26.2980447779        9.6868384975       14.5815092503
  C        26.8026954983       10.7984105782       15.3281865952
  C        32.1812749939       21.2341719725       10.1426928441
  C        32.7779053201       22.3962677567       10.8684540010
  C        32.0221540164       23.0857477407       11.8295681931
  C        32.5889542974       24.1268698489       12.5587136858
  C        33.9284460729       24.5086114750       12.3491656022
  C        34.6679152949       23.8370846135       11.3570570062
  C        34.1030332976       22.7905100907       10.6293625318
  C        34.5505984724       25.5876681770       13.1522267167
  C        34.5227655661       25.5664173575       14.5744343307
  C        34.0013245377       24.4561821644       15.3111706201
  C        25.6829578998        8.6105574973       15.2976052064
  C        25.6783564288        8.6121771060       12.4848137535
  C        32.0695778532       21.2016233170        21.867211836538
  C        32.6387449675       22.3697887288        21.130619215338
  C        31.9026199273       23.0202260107        20.128324625638
  C        32.4734891718       24.0609970460        19.397616458438
  C        33.7950011833       24.4813687829        19.648386613438
  C        34.5117035312       23.8453800256        20.680633166738
  C        33.9459156794       22.8013043001        21.407288516438
  C        34.4355057782       25.5655631666        18.865852056538
  C        34.4624208450       25.5557236193        17.443172964938
  C        33.9710062019       24.4516023735        16.677706063038
  C        40.6106751136       17.0844199596        16.744271526738
  C        40.5988481916       17.1094993596        19.554736741438
  C        28.7315075562       14.0628624255        21.776568935138
  C        28.1144621670       12.9174066966        21.047617318238
  C        28.8526873411       12.1997383168        20.093915132438
  C        28.2662201098       11.1442164236        19.401487240538
  C        26.9262788373       10.7796131057        19.639396227638
  C        26.2051122975       11.4819135073        20.622609949838
  C        26.7899393613       12.5390461509        21.316741641938
  C        26.2831595998        9.6911149726        18.867158714238
  C        26.2825639225        9.7031948887        17.445895563738
  C        26.7925181410       10.8079312437        16.693832864338
  C        18.1351671784        3.1807146135       10.3171913379
  C        17.4055926094        4.2778729714       11.0157477545
  C        16.3901581859        3.9993068440       11.9435043706
  C        15.7422001190        5.0391655480       12.6069748303
  C        16.0936074727        6.3829661741       12.3670362679
  C        17.0826470978        6.6526800319       11.4029696312
  C        17.7319563645        5.6154613533       10.7379442380
  C        15.4692123946        7.4906132719       13.1300761637
  C        15.4847062190        7.4900710360       14.5517871791
  C        16.1863456976        6.4965258405       15.3049708066
  C        42.9457179020       31.8593649029       10.0728425581
  C        43.6459920682       30.7717073357       10.8167633572
  C        44.5916460844       31.0929828450       11.8027384005
  C        45.1972742132       30.0874126835       12.5504057544
  C        44.8706694355       28.7343725188       12.3356410889
  C        43.9446828603       28.4200747677       11.3225653162
  C        43.3359424333       29.4252444138       10.5745067201
  C        45.4882606603       27.6551003040       13.1388420514
  C        45.4925819011       27.6808480945       14.5605283104
  C        44.8055040492       28.6889087330       15.3071402711
  C        14.8558463900        8.5626429999       15.2641281704
  C        14.8738040812        8.5622962496       12.4514683485
  C        42.9463617986       31.9613876166        21.798810255738
  C        43.6914725816       30.8852896871        21.085303075838
  C        44.6562481307       31.1911885269        20.113162520438
  C        45.2776824777       30.1715950363        19.395395241738
  C        44.9536438868       28.8212967639        19.632825574938
  C        44.0198969862       28.5236333326        20.643357123938
  C        43.3917106103       29.5404054219        21.355587235238
  C        45.5626972681       27.7239253991        18.847568060338
  C        45.5331275348       27.7173367062        17.426273440438
  C        44.8268052889       28.7075668042        16.673324043338
  C        35.0801560325       26.6445813391        16.741677040438
  C        35.0482955155       26.6219957237        19.552248769738
  C        18.1483258351        3.2467771852        21.696386872938
  C        17.4296080547        4.3435825137        20.987074365638
  C        16.4145453119        4.0522515286        20.063374412038
  C        15.7661396473        5.0828501361        19.388003989938
  C        16.1205649353        6.4281260520        19.610853861038
  C        17.1117486740        6.7115603689        20.568301220238
  C        17.7594872842        5.6826862185        21.248056989338
  C        15.4900628501        7.5238098730        18.838395816538
  C        15.4959654313        7.5071757022        17.417259141338
  C        16.1926773620        6.5054311928        16.670573601238
  H        10.6723861431       12.4663491329        19.893810508838
  H        11.6944268669       10.5514419825        18.651909737838
  H        15.3910083053       11.1676587056        20.762628760338
  H        14.3505992946       13.0704786479        22.007982012038
  H        13.3759893193       11.6310393842        17.190936492338
  H        50.3224947692       22.7487696234        19.977044709338
  H        49.3192293607       24.6231004294        18.670885310338
  H        45.6413862801       24.1605076672        20.852987794338
  H        46.6623668606       22.2897442243        22.161354171138
  H        47.6294667718       23.5757759945        17.235943644338
  H        14.8714716161        8.5879704425        20.598270664638
  H        50.2868671393       22.7028933732       12.0600677282
  H        49.2687778025       24.5757209425       13.3601232341
  H        45.6098652820       24.1085441267       11.1464263172
  H        46.6520350112       22.2533314236        9.8321672937
  H        47.6074697864       23.5517396118       14.7968204485
  H        40.6305979530       17.0758961385       11.4110189475
  H        48.6869645785       14.0950649603        23.789779636538
  H        10.6809817929       12.4670686363       12.0936366718
  H        11.6888493312       10.5249453148       13.2973676128
  H        15.3923649125       11.1573259204       11.2046509976
  H        14.3641715504       13.0859617707        9.9893333719
  H        13.3753767857       11.6218124115       14.7529430910
  H        47.9299817089       14.2185297347        9.7106802438
  H        47.7798853031       14.3737097420        22.485027030638
  H        49.0818620292       18.5517929937       10.8669488090
  H        10.4155656088       14.1343627296        7.9988087068
  H        24.4737523625        3.0298149755        19.900171131938
  H        25.6036530049        4.8926410496        18.667395195138
  H        23.2206224299        7.7526214267        20.821750826138
  H        22.1099115238        5.8801393397        22.056459314638
  H        23.7920439310        5.7906164663        17.238967129138
  H        36.3589491145       32.1938578169        19.974437865238
  H        35.2095781704       30.3774438848        18.707945585338
  H        37.4655657430       27.4387993543        20.893159211538
  H        38.5948719017       29.2682295651        22.169933586538
  H        36.9760363596       29.4594763544        17.288997777138
  H        25.6979853448        8.6143194082        20.631062647738
  H        36.4496788055       32.2410865048       12.1111460206
  H        35.3357517438       30.4285037626       13.4088573053
  H        37.5414791679       27.4860738963       11.1760273149
  H        38.6291946971       29.3101935226        9.8643502043
  H        37.0147605737       29.4760752326       14.8525177212
  H        46.1085777317       26.5871968408       11.3855202981
  H        44.6680904899       35.1160681818        23.803830464938
  H        24.4418802258        3.0395496676       12.0758301084
  H        25.5748089024        4.8816933751       13.3238888663
  H        23.1615642891        7.7665810675       11.2382773443
  H        22.0408022447        5.9124725828        9.9897899781
  H        23.7822837698        5.7906867876       14.7997183870
  H        44.9532868015       34.3898131469        9.6947964851
  H        44.9015651067       34.2066725784        22.480478499038
  H        40.6656102425       33.2083028908       10.8529088377
  H        23.1501081505        1.9573516386        8.0045309803
  H        25.7729928753       19.6465091949        19.925303444538
  H        23.6087625266       19.7018667608        18.683037424738
  H        22.3057253629       16.1992508751        20.811030415138
  H        24.4767573714       16.1577744825        22.051324061538
  H        23.7033894140       17.6766204881        17.233468904538
  H        35.1257619347       15.4657077130        19.950235921238
  H        37.2599059788       15.4011555466        18.658146546238
  H        38.6937675366       18.7927226395        20.882187540338
  H        36.5602378980       18.8295354036        22.185722469838
  H        37.2191324484       17.3682392756        17.231789160238
  H        20.3228772832       17.9613604370        20.640857419738
  H        35.1575945758       15.4335389377       12.0784664788
  H        37.2939418711       15.3624182929       13.3651985889
  H        38.7157206221       18.7815796872       11.1768429577
  H        36.5748268488       18.8335960217        9.8865819140
  H        37.2294144039       17.3547338790       14.7927920035
  H        35.1632144752       26.6748012353       11.4081151316
  H        28.4936849709       21.0742106246        23.869033955238
  H        25.7516258701       19.6516977644       12.1415867413
  H        23.5654962294       19.7125920113       13.3571859534
  H        22.3017865247       16.1880306281       11.2422393067
  H        24.4900869024       16.1452271857       10.0277419922
  H        23.6932335515       17.6746505933       14.7927194359
  H        29.0246745517       21.7123551916        9.7278240495
  H        29.2197371801       21.6831735778        22.555236069238
  H        32.0813054169       18.5535963933       10.9175875420
  H        27.3671421646       19.0185199622        8.0785632759
  H        14.8532170470       19.6707305801       12.1094576504
  H        17.0211696491       19.7278578442       13.3463463657
  H        18.3038078594       16.1997423768       11.2476285431
  H        16.1321801319       16.1587973501       10.0098383621
  H        16.9118477127       17.7244876220       14.8144051798
  H        46.0858922721       15.4309185594       12.0568083556
  H        43.9587933693       15.3623359419       13.3580405342
  H        42.5402120835       18.8017712451       11.1989836171
  H        44.6674752944       18.8448627240        9.8864293654
  H        44.0139178125       17.3022637268       14.8218014573
  H        20.2969293704       17.9472813501       11.4054133203
  H        46.0415725914       15.3845928048        20.023763030738
  H        43.9123178223       15.3177465132        18.727256958638
  H        42.5185870111       18.7884983294        20.851180591038
  H        44.6539238399       18.8409800125        22.149739276338
  H        44.0034660174       17.2890393675        17.260436192038
  H        46.1984957503       26.6822982238        20.613088348438
  H        52.7410753266       21.0625808221        8.1946000709
  H        14.8650289576       19.6777143430        19.895043298938
  H        17.0600705696       19.7516485920        18.700334515038
  H        18.3110985301       16.2076616437        20.790870304938
  H        16.1185503128       16.1582703871        21.996146104238
  H        16.9213186812       17.7285491621        17.252760604038
  H        52.3220276549       21.6734726209        22.284595313438
  H        52.0131796019       21.7022732052        9.4954510275
  H        49.0669592251       18.6078605751        21.194221907538
  H        13.2470506899       19.0166048498        23.965768963938
  H        29.9624012361       12.4283925259       12.2058986148
  H        28.8906322304       10.4990457935       13.3827437886
  H        25.2397929279       11.2192745749       11.2281307806
  H        26.3267602577       13.1417102150       10.0524907913
  H        27.1712028896       11.6651350839       14.7878319476
  H        30.9922690023       22.7816172313       11.9993864287
  H        31.9960799517       24.6596803069       13.2989557627
  H        35.7048839289       24.1205868231       11.1887312846
  H        34.6802888516       22.2490634704        9.8833199729
  H        33.6502963048       23.5857481568       14.7642818076
  H        25.7101143589        8.5941390164       11.3968540383
  H        30.8875072767       22.6869661570        19.924438231238
  H        31.8946418269       24.5640755234        18.626089171238
  H        35.5345918431       24.1567049426        20.882158804038
  H        34.5080652992       22.2892386873        22.184581130338
  H        33.5968091312       23.5772579485        17.202776000438
  H        40.5945028452       17.0779634168        20.642636477438
  H        32.5085782982       14.1538625182        8.2382974610
  H        29.8890721137       12.4773001382        19.916571425438
  H        28.8445194783       10.5829775675        18.670749135538
  H        25.1685149992       11.2108582941        20.812115273138
  H        26.2311807017       13.0988347422        22.063042523438
  H        27.1515624885       11.6825895618        17.228443403938
  H        33.2974795646       14.2188192848        22.426157423938
  H        33.4055696536       14.4125599731        9.5923635901
  H        32.0213774620       18.5027008880        21.063056047138
  H        30.2073992204       14.1447871690        8.0796532596
  H        16.1184798431        2.9627325372       12.1300892452
  H        14.9529219611        4.8196013810       13.3227697544
  H        17.3645781295        7.6856384401       11.2095740215
  H        18.5136496058        5.8182259657       10.0097602954
  H        16.7528071060        5.7391114793       14.7714792684
  H        44.8280469425       32.1400424607       11.9768607874
  H        45.9372094878       30.3410816915       13.3063077737
  H        43.6817619393       27.3780397202       11.1525866164
  H        42.5992122675       29.1898975474        9.8099541984
  H        44.2300284809       29.4365861594       14.7688402880
  H        14.8498112971        8.5453684847       11.3632554504
  H        44.8999576096       32.2338569815        19.921871625338
  H        46.0246913476       30.4127652383        18.642244137338
  H        43.7625902401       27.4839361605        20.834644241538
  H        42.6449570218       29.3175713906        22.113774428138
  H        44.2681886633       29.4703793704        17.207903786138
  H        35.0019728684       26.6340095833        20.639602722338
  H        36.6050984985       35.1339063590        8.1805755852
  H        16.1436310028        3.0126442952        19.893537879738
  H        14.9738952497        4.8559258601        18.677851595138
  H        17.3949917904        7.7470680444        20.745372783438
  H        18.5421388760        5.8931601206        21.973051011238
  H        16.7640879536        5.7551786062        17.209016007838
  H        36.2786490702       34.4821003568        22.263299702738
  H        36.3804540801       34.2091085690        9.4996906419
  H        40.5787141968       33.2013109144        21.144307662038
  H        17.4705260013        1.9469416768        23.963804698438
  H        29.2658667666       19.4519352674       12.5287290938
  H        28.8927754254       19.1364125194        19.673042119438
  H        30.6467331688       15.4647416374        19.764463505938
  H        31.5495927509       15.7439402519       12.5641576471
  H        28.1640624064       18.0472279998       14.2857262119
  H        29.8100811921       15.4126291652       14.2827652721
  H        18.8526138469        0.8688234444       12.3349665911
  H        40.5280620598       35.2289153129        19.942034735838
  H        42.3226991831       34.4175173017        19.581026941338
  H        22.0874988394        0.6917220960       12.3515561383
  H        11.5967441258       18.7127991556       12.3824934180
  H        52.2645474246       18.4311279281        19.667357176038
  H        49.2546765961       16.4768200273        19.574330462638
  H        10.1504401343       15.7982952040       12.2926361192
  H        50.8496342306       17.6926213198        19.943898600538
  H        10.0459954963       17.3947148038       12.0519659047
  H        20.2136625994        0.0018967378       12.0421054091
  H        39.1834829566       36.1241537926        19.676072301838
 Ni        30.2660757471       17.5263931082        18.657123596338
 Ni        30.4731292185       16.3856143947        16.398791243738
 Ni        29.5459776387       18.3799452972        16.242078660638
 Ni        30.2226562927       17.4999299958       13.2400469304
  O        10.6498615186       14.3651636287        21.475574554438
  O        12.6130805038       14.6574178759        22.573681704938