     560
 i =      345, E =     -4677.7431138349
  C        11.8585284300       14.0533859027        21.731366575638
  C        12.4558713305       12.8903227466        21.013170870538
  C        11.7042674385       12.1717400973        20.071167026838
  C        12.2805197552       11.1094428052        19.378851608638
  C        13.6209614656       10.7392689611        19.606816430738
  C        14.3540355595       11.4425026395        20.580619537138
  C        13.7812592040       12.5075402440        21.272113533938
  C        14.2604530639        9.6486180422        18.833366743838
  C        14.2555564767        9.6564352346        17.411657840338
  C        13.7423856763       10.7585283679        16.657712036638
  C        49.1266025222       21.2333998801        21.869517681138
  C        48.5497422765       22.4012450493        21.142503851038
  C        49.2997217367       23.0684636489        20.161383713038
  C        48.7327731508       24.1075808446        19.428194503538
  C        47.4022281804       24.5092201191        19.656817220238
  C        46.6713487819       23.8604658056        20.670469795138
  C        47.2337857315       22.8155465688        21.399814380438
  C        46.7720271118       25.5869115038        18.859537248838
  C        46.7610523041       25.5572472811        17.437785619738
  C        47.2609464237       24.4421389566        16.694290206638
  C        14.8593812738        8.5700521695        16.698352935638
  C        14.8912989313        8.5966713772        19.509979892038
  C        49.1129110478       21.2034822820       10.1452753428
  C        48.5274961474       22.3647653079       10.8724058188
  C        49.2666253865       23.0252726231       11.8655417706
  C        48.6902966321       24.0598234300       12.5969913576
  C        47.3599424996       24.4567418530       12.3586125754
  C        46.6396685353       23.8120850363       11.3348132675
  C        47.2132189862       22.7761829536       10.6030184715
  C        46.7214760301       25.5316769239       13.1496398536
  C        46.7332823651       25.5280450281       14.5713422643
  C        47.2486572811       24.4288092443       15.3277367115
  C        40.6175621161       17.0806326577       15.3166706450
  C        40.6364311877       17.1306661605       12.5061212442
  C        11.8828252848       14.0863717125       10.2854836542
  C        12.4718252145       12.9103729632       10.9895712549
  C        11.7142415973       12.1775655516       11.9159563377
  C        12.2805589175       11.0949893337       12.5843849039
  C        13.6191687807       10.7206603613       12.3522839956
  C        14.3570605113       11.4355688766       11.3909135792
  C        13.7918960461       12.5168526803       10.7181918254
  C        14.2525882485        9.6238544472       13.1227346130
  C        14.2514371717        9.6439302350       14.5445777530
  C        13.7416809301       10.7529230144       15.2916633696
  C        22.5067237687        3.2430513370        21.738236151838
  C        23.2104705032        4.3464393450        21.026513768138
  C        24.2099435902        4.0641220262        20.083781919338
  C        24.8313561080        5.1015919963        19.393967544938
  C        24.4677621527        6.4427455711        19.626507361538
  C        23.4930270178        6.7167115346        20.603124229338
  C        22.8679473988        5.6812149448        21.292315728338
  C        25.0763954344        7.5476791546        18.852342601938
  C        25.0702869773        7.5362115470        17.431138767238
  C        24.3798434390        6.5334415595        16.679466376438
  C        38.3006740177       31.9271487866        21.837728687238
  C        37.5655897354       30.8391563777        21.127710810938
  C        36.6010553722       31.1479276811        20.155777206038
  C        35.9739404871       30.1321830011        19.438819259138
  C        36.2952752938       28.7800575173        19.670084144038
  C        37.2315739335       28.4786673777        20.677596377138
  C        37.8625316819       29.4933871612        21.394074276738
  C        35.6813915427       27.6924072949        18.872452244738
  C        35.7076004628       27.7087552452        17.450185802938
  C        36.4132705741       28.7102711572        16.711697424438
  C        25.7019681870        8.6052747760        16.717452153838
  C        25.6584601357        8.6270151335        19.528299621438
  C        38.3256365903       31.9606502627       10.1561101089
  C        37.5966911557       30.8887473922       10.8957922889
  C        36.6616805450       31.2010210325       11.8950241935
  C        36.0415674967       30.1858957621       12.6215384951
  C        36.3411407726       28.8309443798       12.3742306922
  C        37.2542039170       28.5286077165       11.3449701268
  C        37.8761346540       29.5404509733       10.6191639514
  C        35.7240181292       27.7348978663       13.1586121067
  C        35.7291372496       27.7304903393       14.5814309090
  C        36.4228755732       28.7211787281       15.3450024805
  C        46.1352499830       26.6206671403       15.2814795763
  C        46.0875462976       26.5800501191       12.4735749671
  C        22.4657742332        3.2544281498       10.2524127079
  C        23.1729425549        4.3604480143       10.9647128678
  C        24.1851374509        4.0693292071       11.8930499482
  C        24.8243166966        5.0965722506       12.5824433076
  C        24.4703485367        6.4430841745       12.3660306898
  C        23.4827143063        6.7276667649       11.4044850184
  C        22.8393984601        5.7007241123       10.7147726485
  C        25.1034640553        7.5372233845       13.1428464753
  C        25.0848850612        7.5300825007       14.5648415197
  C        24.3842527296        6.5322864858       15.3132906392
  C        26.5630554106       17.8297569770        21.775885524938
  C        25.2626153169       17.8937982560        21.050397496438
  C        25.0103533506       18.9089545922        20.114429694938
  C        23.8024319021       18.9409300464        19.421889469538
  C        22.8146043252       17.9611079509        19.644737898838
  C        23.0620193585       16.9693797041        20.612379287238
  C        24.2710126906       16.9323191968        21.303381809638
  C        21.5487038902       17.9567271880        18.873013365038
  C        21.5572024455       17.9522141571        17.451033163938
  C        22.7674424017       17.8438245931        16.695733791338
  C        34.4215075248       17.2180968163        21.907148083138
  C        35.7142246366       17.1499582073        21.167067695338
  C        35.9010463261       16.1860757218        20.163666317338
  C        37.0832737890       16.1560525663        19.428818541538
  C        38.1092062461       17.0904662867        19.672681595538
  C        37.9231499024       18.0345396780        20.701416345538
  C        36.7402592765       18.0685951784        21.436397241038
  C        39.3630176209       17.0896854198        18.883367332638
  C        39.3587898372       17.0963896653        17.460497881738
  C        38.1518663362       17.2098427625        16.700796269038
  C        20.3132395018       17.9697821434        16.738917038738
  C        20.3229482963       17.9471397843        19.551456471638
  C        34.4486662145       17.1874623060       10.1772205508
  C        35.7522358949       17.1138901626       10.8976369585
  C        35.9877822481       16.1117067581       11.8518487872
  C        37.1731760723       16.1001654312       12.5821125563
  C        38.1568400755       17.0865160044       12.3744992096
  C        37.9303931850       18.0623490729       11.3854923136
  C        36.7411812512       18.0816698803       10.6610762672
  C        39.4052378373       17.1056030186       13.1707724119
  C        39.3806121731       17.1022464087       14.5923000086
  C        38.1619548214       17.2079660946       15.3339802523
  C        35.0952142249       26.6531323623       15.2860888672
  C        35.1331705834       26.6635369042       12.4763874032
  C        26.5626510179       17.8264873878       10.3237474803
  C        25.2504697597       17.8803305788       11.0261998867
  C        24.9719903882       18.9155347516       11.9315841722
  C        23.7546200751       18.9470746631       12.6050479112
  C        22.7872355854       17.9455116337       12.3931001038
  C        23.0584283350       16.9349847272       11.4531097077
  C        24.2770745868       16.8998494676       10.7791867902
  C        21.5227353809       17.9367641989       13.1636917380
  C        21.5432049247       17.9412773166       14.5846392971
  C        22.7607618115       17.8389464665       15.3295105587
  C        14.0452314928       17.8320502459       10.2840646409
  C        15.3514248202       17.8973403546       11.0015947163
  C        15.6103766829       18.9134124230       11.9342634800
  C        16.8206333906       18.9413445703       12.6233032061
  C        17.8030270400       17.9558700020       12.4005886987
  C        17.5498081425       16.9648458902       11.4340254527
  C        16.3391262795       16.9327164961       10.7460702181
  C        19.0691812566       17.9439632849       13.1709545782
  C        19.0620797768       17.9479832970       14.5925865712
  C        17.8514567595       17.8495574419       15.3481491728
  C        46.8032337500       17.2180811043       10.1589431404
  C        45.5118189953       17.1532283957       10.9039436369
  C        45.3045084696       16.1699239407       11.8839426057
  C        44.1218831383       16.1467170511       12.6188750834
  C        43.1152572210       17.1070759132       12.3972090223
  C        43.3200730383       18.0704994048       11.3907356356
  C        44.5033006291       18.0972029096       10.6562125633
  C        41.8607307772       17.1114520289       13.1854608666
  C        41.8647672519       17.1001948393       14.6079431966
  C        43.0730434237       17.1924148298       15.3681285997
  C        20.3058473225       17.9635777549       15.3049358468
  C        20.2943795862       17.9180145596       12.4923099609
  C        46.7823607377       17.2304216707        21.877954567038
  C        45.4776490619       17.1202018478        21.162638174638
  C        45.2587494118       16.1159743536        20.206982619838
  C        44.0694953858       16.0819000179        19.482214104238
  C        43.0674492548       17.0489176714        19.694785657938
  C        43.2768751209       18.0232643640        20.688944303438
  C        44.4673288456       18.0635956582        21.408990135038
  C        41.8194920961       17.0639713433        18.897559220338
  C        41.8436635606       17.0750424747        17.476051005638
  C        43.0628397751       17.1780350435        16.734753913138
  C        46.1529816773       26.6370794492        16.716024034438
  C        46.1620392711       26.6560201734        19.525643458838
  C        14.0405180803       17.8296626345        21.696472017538
  C        15.3550307413       17.9024454695        20.997212449038
  C        15.6234565956       18.9274713792        20.078026079138
  C        16.8475706992       18.9688300661        19.415604026238
  C        17.8280939844       17.9840846953        19.647854307538
  C        17.5652171224       16.9848384861        20.602112479638
  C        16.3432662518       16.9432571427        21.268550523538
  C        19.0942880410       17.9701919613        18.879938515138
  C        19.0753884195       17.9609488761        17.458896049138
  C        17.8580318589       17.8552204275        16.714160321238
  C        28.8021537311       14.0838033531       10.3543610214
  C        28.2069858491       12.9061334587       11.0434158288
  C        28.9371544909       12.1875520025       12.0016398610
  C        28.3495939548       11.1106871944       12.6610370182
  C        27.0199072403       10.7312235058       12.3870163239
  C        26.3130858228       11.4315526612       11.3925244313
  C        26.8971807758       12.5078695701       10.7310908431
  C        26.3563980198        9.6492799200       13.1495879955
  C        26.3330128537        9.6756756815       14.5705130436
  C        26.8301662180       10.7887624214       15.3199547333
  C        32.1739671713       21.2393981535       10.1101157374
  C        32.7546423314       22.4048783096       10.8382261938
  C        32.0028164852       23.0636517090       11.8240701441
  C        32.5641026822       24.1041438606       12.5593713443
  C        33.8923361958       24.5154327155       12.3319846901
  C        34.6258265979       23.8727582942       11.3157851941
  C        34.0684457808       22.8271146043       10.5823312824
  C        34.5145695094       25.5943561117       13.1353892984
  C        34.5035063879       25.5684960881       14.5579582698
  C        33.9963910738       24.4539438937       15.2977449590
  C        25.7153049216        8.5981400881       15.2835658570
  C        25.7244708760        8.5983423523       12.4717579464
  C        32.0808630450       21.1969893439        21.839658315238
  C        32.6589532242       22.3626839413        21.107959785538
  C        31.9291123407       23.0070653310        20.096724609938
  C        32.5009442338       24.0507117826        19.372210051638
  C        33.8184841815       24.4771461229        19.633620280038
  C        34.5292557289       23.8457125885        20.673093885338
  C        33.9613374976       22.8005081543        21.397058925038
  C        34.4576090354       25.5607989339        18.849903200838
  C        34.4745773591       25.5516279917        17.426919406038
  C        33.9819457522       24.4461091022        16.664398586238
  C        40.6061600580       17.0723425028        16.751904586338
  C        40.5879557886       17.0892017822        19.561913496238
  C        28.6634220229       14.0649669193        21.808419269238
  C        28.0625924680       12.9182055634        21.069612204338
  C        28.8190987971       12.2053258458        20.126448709338
  C        28.2476804189       11.1501771023        19.420707441938
  C        26.9054730753       10.7799819205        19.636126011138
  C        26.1657514219       11.4776752379        20.609248154938
  C        26.7347970971       12.5352175290        21.315616028738
  C        26.2781977630        9.6874401327        18.856228094538
  C        26.2945578296        9.6953788088        17.434959144338
  C        26.8097649790       10.7992089353        16.685563470238
  C        18.1353385920        3.1808793764       10.3171220894
  C        17.4057016586        4.2780015190       11.0156563182
  C        16.3897904315        3.9994111407       11.9428923673
  C        15.7418227708        5.0392219731       12.6064252726
  C        16.0936548183        6.3829947162       12.3669883525
  C        17.0831683521        6.6527706380       11.4034355447
  C        17.7325078244        5.6155862140       10.7383531592
  C        15.4691260596        7.4905736350       13.1300571214
  C        15.4844108791        7.4899026046       14.5517730539
  C        16.1860875877        6.4963701914       15.3049295608
  C        42.9456825437       31.8594577350       10.0728307643
  C        43.6460317179       30.7717067712       10.8167530876
  C        44.5915727795       31.0930466442       11.8027959006
  C        45.1972778861       30.0875075740       12.5504739963
  C        44.8708297521       28.7344551376       12.3356051226
  C        43.9449142373       28.4200931576       11.3224813377
  C        43.3361060252       29.4252396614       10.5744271367
  C        45.4883270446       27.6551561535       13.1388607029
  C        45.4925210028       27.6807817921       14.5605586423
  C        44.8055053395       28.6888992493       15.3071587942
  C        14.8554872518        8.5624357030       15.2641220662
  C        14.8737728904        8.5622826308       12.4514684514
  C        42.9463474405       31.9615845220        21.798780535538
  C        43.6915122299       30.8853949782        21.085256634838
  C        44.6562444240       31.1912823421        20.113099976838
  C        45.2777263425       30.1716912701        19.395339810838
  C        44.9537335731       28.8214138988        19.632839714338
  C        44.0201079289       28.5237378103        20.643471134638
  C        43.3919042157       29.5405214069        21.355678655138
  C        45.5627580656       27.7240102540        18.847584354638
  C        45.5331210264       27.7173139777        17.426287029838
  C        44.8267260058       28.7074973523        16.673345421438
  C        35.0824657554       26.6433389451        16.721913829638
  C        35.0727167023       26.6184419172        19.532467709338
  C        18.1485154147        3.2467938004        21.696386577538
  C        17.4298118855        4.3436147790        20.987058588038
  C        16.4145507573        4.0522622093        20.063584538038
  C        15.7660999431        5.0828549867        19.388250003938
  C        16.1207719873        6.4281138991        19.610805097138
  C        17.1123266316        6.7115555026        20.567863981538
  C        17.7601201258        5.6826951709        21.247608739838
  C        15.4901410239        7.5237620351        18.838366668038
  C        15.4957653081        7.5070271088        17.417221557238
  C        16.1924844572        6.5052877012        16.670533080838
  H        10.6722329008       12.4660938801        19.893965889638
  H        11.6942376790       10.5511687981        18.652148201738
  H        15.3909386702       11.1675819039        20.762604983438
  H        14.3506376504       13.0703906782        22.007901157438
  H        13.3755168686       11.6307314635        17.190983477138
  H        50.3224261491       22.7484253777        19.976630685638
  H        49.3191968342       24.6227732262        18.670522458638
  H        45.6418602965       24.1612531142        20.853638498838
  H        46.6627960391       22.2903933514        22.161990468138
  H        47.6294662506       23.5757560496        17.235975177438
  H        14.8718062774        8.5879708012        20.598290260438
  H        50.2866041867       22.7022828314       12.0605769994
  H        49.2686169030       24.5751364925       13.3606449670
  H        45.6103471809       24.1095151849       11.1455808866
  H        46.6524775871       22.2542460532        9.8312383785
  H        47.6074049966       23.5516612769       14.7968687939
  H        40.6428706669       17.1095894573       11.4179714099
  H        48.6870332536       14.0950626402        23.789790570138
  H        10.6809662429       12.4671304336       12.0936685423
  H        11.6887441599       10.5249790793       13.2973672215
  H        15.3923005631       11.1571752696       11.2046717699
  H        14.3642620699       13.0857685040        9.9893256062
  H        13.3749085145       11.6215657270       14.7530394112
  H        47.9301262627       14.2182774008        9.7108597577
  H        47.7799489918       14.3738341730        22.485077798138
  H        49.0828669637       18.5522152072       10.8671155087
  H        10.4158037682       14.1343266398        7.9987568878
  H        24.4785083875        3.0256004766        19.903615597338
  H        25.6087874550        4.8834761000        18.664984116438
  H        23.2044951689        7.7494856851        20.787216913938
  H        22.0948196491        5.8822852573        22.029834797238
  H        23.8143271921        5.7763993034        17.214922862938
  H        36.3664948376       32.1923819366        19.964329539838
  H        35.2256424918       30.3778951084        18.688455894838
  H        37.4892262599       27.4382031113        20.864649770438
  H        38.6095404041       29.2657910380        22.150967973738
  H        36.9793732119       29.4599053735        17.256910741438
  H        25.6760066192        8.6145082162        20.616565171438
  H        36.4410575384       32.2461500307       12.1001478885
  H        35.3115442122       30.4360635017       13.3882117445
  H        37.4990518162       27.4873561855       11.1457962397
  H        38.6026368468       29.3095601993        9.8437728467
  H        36.9972617588       29.4788402075       14.8197989531
  H        46.1089359824       26.5874574214       11.3855348157
  H        44.6682460855       35.1161713663        23.803912481538
  H        24.4601786248        3.0297828863       12.0562007761
  H        25.6114960376        4.8652783837       13.2968956393
  H        23.1992388070        7.7634800331       11.2292820314
  H        22.0604077718        5.9163288579        9.9871284031
  H        23.8215152818        5.7747749047       14.7756313259
  H        44.9536099374       34.3898991925        9.6947487261
  H        44.9019207122       34.2068580683        22.480501259738
  H        40.6650569057       33.2083663687       10.8527591804
  H        23.1502193449        1.9578264387        8.0030776619
  H        25.7696733793       19.6690767914        19.945637872038
  H        23.6089107713       19.7326506441        18.701357749338
  H        22.3081825815       16.2052777265        20.790557204538
  H        24.4763115667       16.1538762114        22.034463350338
  H        23.7078487191       17.7310614966        17.227413943438
  H        35.1007698326       15.4766780870        19.965207649738
  H        37.2257570010       15.3997184456        18.660136360038
  H        38.7053571435       18.7657319797        20.894646755638
  H        36.5825888264       18.8136006755        22.212897720038
  H        37.2104510208       17.3308391615        17.229044955838
  H        20.3257975730       17.9733458674        20.639677516338
  H        35.2280007246       15.3514923844       12.0178860913
  H        37.3509807277       15.3216181388       13.3207978152
  H        38.6832634048       18.8300799578       11.2191123132
  H        36.5458917674       18.8534747442        9.9201967383
  H        37.2280595147       17.3242860474       14.7913472832
  H        35.1093986530       26.6878476921       11.3885088523
  H        28.5070412977       21.0933516481        23.885448138438
  H        25.7195935364       19.6891785278       12.0902887466
  H        23.5382081579       19.7511497900       13.3050956889
  H        22.3179668107       16.1555229762       11.2858447444
  H        24.5044832797       16.1078313024       10.0696820553
  H        23.6959659732       17.7227954243       14.7896037884
  H        28.9700691088       21.7300236024        9.7055828527
  H        29.1580582723       21.7319272358        22.513237152238
  H        32.1743507746       18.6468427682       10.9056171331
  H        27.3502627578       19.0688119617        8.0872146930
  H        14.8524010693       19.6747823719       12.1039545739
  H        17.0201363833       19.7335722302       13.3416897823
  H        18.2999937860       16.1973679631       11.2548521290
  H        16.1289680577       16.1551188825       10.0156240200
  H        16.9112687065       17.7351464912       14.8166331765
  H        46.0872989195       15.4365957770       12.0630735188
  H        43.9630458934       15.3755698548       13.3695049357
  H        42.5522135291       18.8209205603       11.2142643429
  H        44.6760363167       18.8554321533        9.8959569728
  H        44.0151767739       17.3081299346       14.8399671515
  H        20.2919163161       17.9365687565       11.4039464163
  H        46.0365822093       15.3759171561        20.033021770038
  H        43.9046581186       15.3019145700        18.741997823438
  H        42.5095763746       18.7752912816        20.860829817138
  H        44.6480914688       18.8352948301        22.153315468238
  H        43.9973566799       17.2813907880        17.278595511538
  H        46.1988929667       26.6825915818        20.613085951938
  H        52.7411498297       21.0626679947        8.1946026268
  H        14.8634664337       19.6853321050        19.901453735538
  H        17.0579998898       19.7669610945        18.706958174538
  H        18.3151479193       16.2182095819        20.785729172238
  H        16.1232450702       16.1612335832        21.991222728438
  H        16.9227653622       17.7453649515        17.254866901738
  H        52.3222957810       21.6735925698        22.284524081138
  H        52.0134171239       21.7025049872        9.4955109768
  H        49.0669901666       18.6075174777        21.194033625138
  H        13.2471681792       19.0166242174        23.965895029438
  H        29.9577499152       12.4947092945       12.2198566354
  H        28.9157838605       10.5523910454       13.4033936472
  H        25.2856455649       11.1477596184       11.1743583716
  H        26.3482971619       13.0705731527        9.9800257239
  H        27.2009910988       11.6571147198       14.7835863319
  H        30.9837374432       22.7333571885       12.0116728921
  H        31.9743543704       24.6125357021       13.3190022046
  H        35.6540184146       24.1783979265       11.1331949445
  H        34.6432722321       22.3085118728        9.8184663172
  H        33.6439235267       23.5821556529       14.7539838896
  H        25.7602802570        8.5801579432       11.3839215025
  H        30.9192108042       22.6655223901        19.880855468038
  H        31.9261095294       24.5500976937        18.595386919138
  H        35.5493264787       24.1610749592        20.882500750338
  H        34.5187115708       22.2926314633        22.180594114538
  H        33.6186510360       23.5679958221        17.190647341438
  H        40.5814643679       17.0561275974        20.649760505538
  H        32.5237517077       14.1352181319        8.1757542871
  H        29.8574041288       12.4862810751        19.966189118038
  H        28.8400549347       10.5943238839        18.697197537038
  H        25.1273168394       11.2020578222        20.781146983438
  H        26.1611612558       13.0909325925        22.053658896538
  H        27.1639335010       11.6755882960        17.220586806438
  H        33.2875624059       14.2185837760        22.333202511938
  H        33.4097310467       14.3640031433        9.5411086551
  H        32.1571757254       18.5565642918        21.154748326338
  H        30.1808659659       14.1416634277        8.0668656498
  H        16.1178749464        2.9628361718       12.1291164037
  H        14.9522678708        4.8196339329       13.3219054066
  H        17.3655755481        7.6857002441       11.2105787009
  H        18.5147064712        5.8184302302       10.0107240919
  H        16.7526133372        5.7390296503       14.7713958370
  H        44.8278975284       32.1401314307       11.9769147290
  H        45.9371993009       30.3412522193       13.3063706513
  H        43.6821823967       27.3780257626       11.1523947600
  H        42.5994632913       29.1899325124        9.8097709004
  H        44.2301725156       29.4366764418       14.7688383409
  H        14.8500325471        8.5454693875       11.3632489570
  H        44.8999045168       32.2339611712        19.921785659038
  H        46.0247286956       30.4129156183        18.642196212838
  H        43.7629884298       27.4840172343        20.834868042238
  H        42.6452859107       29.3177472602        22.114013032638
  H        44.2683011646       29.4704467114        17.207930584238
  H        35.0325427399       26.6306028393        20.620070518138
  H        36.6051934496       35.1339408384        8.1807068266
  H        16.1434406704        3.0126644357        19.894010670638
  H        14.9736835958        4.8559220047        18.678295013338
  H        17.3959068041        7.7470305448        20.744583415438
  H        18.5430311274        5.8932152714        21.972321231438
  H        16.7640400790        5.7551203455        17.208945388238
  H        36.2787482790       34.4820682938        22.263133563338
  H        36.3810057792       34.2090943688        9.4997549700
  H        40.5796199792       33.2021753224        21.143700183238
  H        17.4709436191        1.9470830281        23.963773036838
  H        28.6778359016       19.0047173864       12.3541535358
  H        28.7230755083       18.8833119358        19.677009119938
  H        30.7573223757       15.3044988379        19.796635370638
  H        32.4487501520       16.1640461033       12.3503907352
  H        18.8537408201        0.8689481297       12.3353320032
  H        40.5282791941       35.2289432888        19.941919503138
  H        42.3237733871       34.4188705956        19.580096362838
  H        22.0874781934        0.6921447653       12.3516270895
  H        11.5966710998       18.7128972195       12.3825562809
  H        52.2647093772       18.4312865235        19.667261603838
  H        49.2551780425       16.4763951482        19.573933145438
  H        10.1503081193       15.7982848358       12.2926412841
  H        50.8498653809       17.6926446193        19.943815577838
  H        10.0460541334       17.3946968466       12.0519536023
  H        20.2150724871        0.0020765730       12.0419513461
  H        39.1837234039       36.1243589893        19.676242848638
 Ni        30.6920082801       17.6159046274        19.316951003238
 Ni        30.8617310449       18.0151568286       14.7444649051
 Ni        30.5661658998       17.3520459617        16.906394458338
 Ni        30.5207102620       17.5263820463       12.5772146000
  O        10.6498014036       14.3652345034        21.475579662238
  O        12.6129885307       14.6574720081        22.573647961338
  O        49.1474947161       16.8459885800        23.979557154938
  O        50.3501180050       20.9362354459        21.638081636738