     563
 i =      229, E =     -4695.0195236749
  C        11.8586835128       14.0534363308        21.731307736838
  C        12.4560780047       12.8905139109        21.012974726438
  C        11.7043552497       12.1716501659        20.071285343238
  C        12.2806858969       11.1094264953        19.378937406038
  C        13.6212117856       10.7394545466        19.606736177638
  C        14.3543718597       11.4429416613        20.580278604438
  C        13.7815335344       12.5079187714        21.271820508338
  C        14.2606281085        9.6487373546        18.833325030738
  C        14.2557309341        9.6565549267        17.411624659838
  C        13.7425437053       10.7586669293        16.657720796738
  C        49.1266042438       21.2333483616        21.869548949538
  C        48.5497459914       22.4012211294        21.142507274138
  C        49.2997324071       23.0684175415        20.161388651438
  C        48.7327807119       24.1075116642        19.428151144238
  C        47.4022644199       24.5092180141        19.656831428538
  C        46.6713876205       23.8604785171        20.670495780338
  C        47.2338420076       22.8156021313        21.399881509338
  C        46.7720164410       25.5868852616        18.859543436638
  C        46.7610116360       25.5572284382        17.437783725938
  C        47.2609573882       24.4421386585        16.694288720038
  C        14.8594884176        8.5701269307        16.698349635138
  C        14.8914907695        8.5968285890        19.509972341038
  C        49.1129360026       21.2034266469       10.1453294205
  C        48.5275422577       22.3647934044       10.8724088403
  C        49.2666786251       23.0252908952       11.8655433785
  C        48.6903471463       24.0598154507       12.5970321423
  C        47.3600379583       24.4568186537       12.3585912086
  C        46.6397635140       23.8121688476       11.3348013469
  C        47.2133112367       22.7762944272       10.6029766287
  C        46.7215955065       25.5317450795       13.1496492793
  C        46.7332392638       25.5280403192       14.5713520522
  C        47.2486808252       24.4288291610       15.3277353250
  C        40.6171399795       17.0821815414       15.3197484656
  C        40.6343469295       17.1234763504       12.5095276876
  C        11.8828108137       14.0863417006       10.2855007334
  C        12.4718580223       12.9104096268       10.9896179280
  C        11.7142485268       12.1774573511       11.9158570251
  C        12.2806184013       11.0948852384       12.5842424507
  C        13.6193383536       10.7208293088       12.3523284237
  C        14.3573855207       11.4361232924       11.3913713414
  C        13.7921732822       12.5174117554       10.7186981310
  C        14.2527779827        9.6240027860       13.1227398278
  C        14.2515339659        9.6440420222       14.5445766140
  C        13.7418525185       10.7530553980       15.2916761494
  C        22.5031705179        3.2423292819        21.737212531838
  C        23.1999992447        4.3457601118        21.021200218038
  C        24.1981893283        4.0644851047        20.077129966938
  C        24.8141255850        5.1029503397        19.384618092238
  C        24.4452606150        6.4425380054        19.616625794438
  C        23.4708767758        6.7155231713        20.593493667338
  C        22.8513391921        5.6791055031        21.285370776338
  C        25.0516270266        7.5482536394        18.844033219138
  C        25.0501327504        7.5366136105        17.423409584138
  C        24.3625742503        6.5334765057        16.669741714638
  C        38.3007001753       31.9268643506        21.838294106638
  C        37.5662478987       30.8374929892        21.129690792338
  C        36.6043737919       31.1436026431        20.154368942438
  C        35.9797916644       30.1256641751        19.438220797538
  C        36.3007568887       28.7742559972        19.674283106338
  C        37.2333751751       28.4756271135        20.685887221638
  C        37.8622286294       29.4925065594        21.401050622238
  C        35.6905620552       27.6847312428        18.876454628338
  C        35.7240747123       27.6985329241        17.454380855438
  C        36.4341319377       28.6981724381        16.717384492438
  C        25.6840191639        8.6058164426        16.712505914938
  C        25.6298226378        8.6274438498        19.522731843038
  C        38.3276049935       31.9604221908       10.1572076889
  C        37.6043134390       30.8865435851       10.8992004194
  C        36.6736634753       31.1949792277       11.9034778985
  C        36.0601081273       30.1768555526       12.6313641391
  C        36.3617725470       28.8231557692       12.3797227832
  C        37.2707108936       28.5247873601       11.3457726271
  C        37.8864454440       29.5394962058       10.6190543905
  C        35.7486856699       27.7244829758       13.1630150298
  C        35.7538577124       27.7187290602       14.5856900466
  C        36.4475725889       28.7083996792       15.3507226074
  C        46.1352166156       26.6206761633       15.2814759020
  C        46.0876320377       26.5800959911       12.4735945977
  C        22.4660077614        3.2537593419       10.2507992795
  C        23.1743636290        4.3598049633       10.9605049695
  C        24.1858872282        4.0689250575       11.8894855469
  C        24.8250155014        5.0967662044       12.5776082214
  C        24.4712875890        6.4428098155       12.3586400715
  C        23.4852885017        6.7271747929       11.3956285802
  C        22.8420045044        5.6996406232       10.7071354612
  C        25.1017641134        7.5368476625       13.1367029122
  C        25.0759492446        7.5302848704       14.5583125686
  C        24.3717825794        6.5326006644       15.3037046877
  C        26.5590168076       17.8257921941        21.776989228938
  C        25.2592562635       17.8877133088        21.050015870438
  C        25.0060054521       18.8984261047        20.109842747738
  C        23.7984949407       18.9253744927        19.416438967038
  C        22.8117594410       17.9457632843        19.644451257538
  C        23.0598644582       16.9588758507        20.616559589038
  C        24.2689740655       16.9261939767        21.307246045238
  C        21.5461014289       17.9371529311        18.873038386238
  C        21.5549059593       17.9271050581        17.451290793838
  C        22.7650818853       17.8128452242        16.696737852938
  C        34.4167542465       17.2124399465        21.904885711938
  C        35.7124847063       17.1433700126        21.166594285838
  C        35.9089720878       16.1705270528        20.174027161138
  C        37.0920353591       16.1426236757        19.440123205738
  C        38.1100755241       17.0875509630        19.675777825138
  C        37.9158577186       18.0398581479        20.694890012238
  C        36.7314864644       18.0719309329        21.427874685838
  C        39.3643581305       17.0887734180        18.887015559138
  C        39.3597496688       17.0960595528        17.464469482038
  C        38.1520961105       17.2085456357        16.705904292738
  C        20.3112820187       17.9460226863        16.738941230838
  C        20.3205275248       17.9314046106        19.551489885738
  C        34.4460403864       17.2451643412       10.1812436972
  C        35.7465966424       17.1468370596       10.9070937272
  C        35.9700712193       16.1426665290       11.8615990649
  C        37.1575180275       16.1153019204       12.5893740807
  C        38.1541970208       17.0883853755       12.3796292295
  C        37.9393366377       18.0652027520       11.3892744670
  C        36.7498181746       18.0992248044       10.6670185562
  C        39.4032037105       17.1005415467       13.1749663625
  C        39.3796009852       17.1014474458       14.5963784447
  C        38.1614734934       17.2080992266       15.3391173852
  C        35.1180076893       26.6419110645       15.2891551743
  C        35.1582150320       26.6536050994       12.4794314534
  C        26.5648867391       17.8266210611       10.3270733919
  C        25.2510611704       17.8780369428       11.0290772982
  C        24.9777859438       18.9008160226       11.9494884161
  C        23.7598530336       18.9292114614       12.6221264051
  C        22.7870242530       17.9363299766       12.3943301700
  C        23.0531152494       16.9388073346       11.4392818207
  C        24.2725225927       16.9070196345       10.7666059229
  C        21.5224584449       17.9224061910       13.1643102749
  C        21.5421488460       17.9176928102       14.5853280436
  C        22.7590008496       17.8080239803       15.3304810694
  C        14.0450982164       17.8315062755       10.2843615241
  C        15.3509320416       17.8947622027       11.0021431315
  C        15.6093837698       18.9064429725       11.9397026382
  C        16.8197709962       18.9317169637       12.6285831254
  C        17.8027365374       17.9479554889       12.4007130003
  C        17.5501446618       16.9618095630       11.4290329832
  C        16.3392784570       16.9321005642       10.7415428331
  C        19.0686782697       17.9317324897       13.1710865570
  C        19.0609209694       17.9291508050       14.5926163477
  C        17.8500509766       17.8295689530       15.3476181467
  C        46.8028224444       17.2182855670       10.1594835805
  C        45.5112778906       17.1532959204       10.9052852349
  C        45.3062318426       16.1729446095       11.8887847478
  C        44.1236419464       16.1491336175       12.6239806958
  C        43.1140301181       17.1056608083       12.3990193384
  C        43.3166907298       18.0661951862       11.3892787425
  C        44.5001076352       18.0937408992       10.6547708615
  C        41.8593711297       17.1093731563       13.1877657109
  C        41.8640031288       17.1029751223       14.6103669858
  C        43.0722789882       17.2001192288       15.3700045222
  C        20.3045292298       17.9406105867       15.3051143095
  C        20.2940549926       17.9092761546       12.4927111995
  C        46.7828548747       17.2306470067        21.878336898138
  C        45.4781329698       17.1209002060        21.163384240838
  C        45.2600153895       16.1186152445        20.205663157938
  C        44.0707369824       16.0855224102        19.481079166038
  C        43.0683476545       17.0514639839        19.696435749138
  C        43.2770911565       18.0239456545        20.692442358338
  C        44.4676838776       18.0634294552        21.412087894038
  C        41.8203881282       17.0669248185        18.899815473438
  C        41.8441980930       17.0794160236        17.478413703338
  C        43.0627948009       17.1861568361        16.736624222938
  C        46.1529851946       26.6370918946        16.716022918238
  C        46.1621007955       26.6560293809        19.525663888138
  C        14.0399865875       17.8285887345        21.696312747638
  C        15.3538700621       17.8981910035        20.996622809338
  C        15.6226094247       18.9188079789        20.072753472338
  C        16.8466058881       18.9561007897        19.410114569038
  C        17.8263338532       17.9717290043        19.647155931638
  C        17.5633189776       16.9773837916        20.606387684738
  C        16.3414825405       16.9397284426        21.272847468438
  C        19.0921981683       17.9532095503        18.879522990338
  C        19.0733188202       17.9399191597        17.458597283438
  C        17.8560897334       17.8343837815        16.713620671038
  C        28.8086250443       14.0832003726       10.3639484917
  C        28.2124901773       12.9053662459       11.0530763162
  C        28.9422373020       12.1798147096       12.0058742024
  C        28.3523625704       11.1030887681       12.6632943980
  C        27.0209298790       10.7298852369       12.3898379749
  C        26.3143663345       11.4361888779       11.4000685952
  C        26.9007403458       12.5132616850       10.7422850038
  C        26.3547382661        9.6477833509       13.1487681988
  C        26.3248657613        9.6753213978       14.5690758317
  C        26.8201677214       10.7883531108       15.3201624294
  C        32.1775767650       21.2395483154       10.1094397572
  C        32.7639849564       22.4042486995       10.8382832746
  C        32.0107695920       23.0786665584       11.8121129158
  C        32.5777786788       24.1148985145       12.5493144189
  C        33.9132902738       24.5078827533       12.3333822693
  C        34.6486826353       23.8515071956       11.3278458786
  C        34.0852633529       22.8089841433       10.5940562431
  C        34.5389145780       25.5845899717       13.1375378218
  C        34.5261927602       25.5583336433       14.5598020446
  C        34.0142964825       24.4450951639       15.2984101262
  C        25.7033378305        8.5984103196       15.2792182797
  C        25.7259600425        8.5972701765       12.4679053903
  C        32.0697761868       21.1916620507        21.831563904938
  C        32.6493146187       22.3600543110        21.101957420338
  C        31.9207637964       23.0147477809        20.096617917238
  C        32.4977899623       24.0569731209        19.373632127838
  C        33.8189720012       24.4732627650        19.632918703538
  C        34.5277665150       23.8340514500        20.668556672738
  C        33.9547903302       22.7896182532        21.389620437738
  C        34.4638769042       25.5550460067        18.851158079038
  C        34.4875554261       25.5436150022        17.428481255738
  C        33.9949695309       24.4384438516        16.665115593638
  C        40.6065083793       17.0745033744        16.754916642838
  C        40.5892591107       17.0897250341        19.565085776438
  C        28.6779030169       14.0337049430        21.814025602438
  C        28.0602652380       12.8948831130        21.074796666638
  C        28.8118642060       12.1731357256        20.134849645038
  C        28.2307408897       11.1269415188        19.425185964238
  C        26.8834122307       10.7744019784        19.635102040438
  C        26.1468381903       11.4810562088        20.603441719138
  C        26.7262520571       12.5311116453        21.313087338938
  C        26.2520857143        9.6870040944        18.852990779538
  C        26.2740179146        9.6954118528        17.432261290338
  C        26.7943383260       10.7988268140        16.685656091638
  C        18.1352102019        3.1808883228       10.3172166366
  C        17.4056354949        4.2779967692       11.0157466827
  C        16.3898256780        3.9994423335       11.9431037901
  C        15.7418633522        5.0392998232       12.6065591559
  C        16.0936588850        6.3830696652       12.3669863465
  C        17.0831382086        6.6528008911       11.4033840177
  C        17.7324567870        5.6155683723       10.7383761915
  C        15.4692303419        7.4906799822       13.1300792217
  C        15.4844621983        7.4900001948       14.5517959225
  C        16.1861922509        6.4964706213       15.3049147361
  C        42.9457350168       31.8594983830       10.0728298396
  C        43.6461085019       30.7717750572       10.8167743206
  C        44.5915856637       31.0930976113       11.8028843599
  C        45.1972584972       30.0875553735       12.5505816880
  C        44.8708154963       28.7345101455       12.3356733235
  C        43.9450807157       28.4201539067       11.3223916753
  C        43.3363067965       29.4253069629       10.5743365292
  C        45.4883889937       27.6552032749       13.1388511682
  C        45.4924928139       27.6807888254       14.5605459592
  C        44.8054199044       28.6888420979       15.3071801989
  C        14.8555662178        8.5625542553       15.2641294938
  C        14.8739096699        8.5624094847       12.4514722102
  C        42.9463928470       31.9616150936        21.798782798538
  C        43.6915784471       30.8854205532        21.085278967938
  C        44.6562144442       31.1913034984        20.113025813538
  C        45.2776714761       30.1716984198        19.395259490438
  C        44.9537821226       28.8214078798        19.632847841938
  C        44.0202055484       28.5237624431        20.643534723138
  C        43.3920165768       29.5405496872        21.355746851138
  C        45.5627916565       27.7239990005        18.847597029838
  C        45.5330184339       27.7172548729        17.426306032938
  C        44.8266838962       28.7074847250        16.673365543538
  C        35.1006092359       26.6331395640        16.724802686038
  C        35.0774978666       26.6124701799        19.535326505038
  C        18.1483916505        3.2468126580        21.696359031338
  C        17.4298223854        4.3435901875        20.986903320438
  C        16.4144997451        4.0523197140        20.063470958138
  C        15.7661032672        5.0829447878        19.388145276838
  C        16.1208441648        6.4281795493        19.610757227038
  C        17.1123800040        6.7115901019        20.567841863638
  C        17.7600785664        5.6826674332        21.247565500938
  C        15.4902035850        7.5238394676        18.838364565838
  C        15.4958726675        7.5071160404        17.417226643938
  C        16.1925703006        6.5053758889        16.670518829138
  H        10.6722823037       12.4659237992        19.894176535738
  H        11.6943986399       10.5510161694        18.652343986538
  H        15.3913779079       11.1682708023        20.762046101938
  H        14.3510324233       13.0710393323        22.007309590138
  H        13.3757826505       11.6309173511        17.190992467738
  H        50.3224237350       22.7483417359        19.976608983438
  H        49.3192211209       24.6227092641        18.670487643138
  H        45.6419400595       24.1613568675        20.853742751338
  H        46.6628929486       22.2904704094        22.162092787338
  H        47.6295265575       23.5757716382        17.235972231738
  H        14.8720478018        8.5881649743        20.598285997338
  H        50.2866384629       22.7022622290       12.0606162779
  H        49.2686757961       24.5751230586       13.3606839062
  H        45.6104790768       24.1096719924       11.1455132928
  H        46.6526001265       22.2543572441        9.8311852084
  H        47.6075083391       23.5517205206       14.7968568510
  H        40.6400590864       17.0989190832       11.4214386561
  H        48.6871114491       14.0951335792        23.789809525238
  H        10.6808644346       12.4667800039       12.0933185424
  H        11.6887705585       10.5246358174       13.2970041671
  H        15.3927601163       11.1580307479       11.2054108842
  H        14.3646507574       13.0866037364        9.9901374600
  H        13.3751442227       11.6217164741       14.7530388656
  H        47.9300931112       14.2185328740        9.7108876767
  H        47.7800023379       14.3741793847        22.485198443138
  H        49.0829694035       18.5523138931       10.8672822627
  H        10.4159905190       14.1343342609        7.9988193193
  H        24.4700664494        3.0265019364        19.899045924038
  H        25.5915118459        4.8875021537        18.654830039838
  H        23.1792862592        7.7477473460        20.775723653038
  H        22.0786252157        5.8776420810        22.023935074238
  H        23.7951856967        5.7765399748        17.203401556938
  H        36.3703947458       32.1875296380        19.959274421738
  H        35.2341817076       30.3690712263        18.684440745138
  H        37.4903014257       27.4357046331        20.876891818238
  H        38.6070840129       29.2672525913        22.160740410238
  H        36.9998795485       29.4471129488        17.263930369238
  H        25.6441032282        8.6146214776        20.611001031738
  H        36.4512091760       32.2392231848       12.1112202924
  H        35.3330881081       30.4235847403       13.4019735311
  H        37.5170423475       27.4845099030       11.1434292671
  H        38.6099349887       29.3121119197        9.8398710641
  H        37.0246767183       29.4648019646       14.8266288302
  H        46.1091237832       26.5875823605       11.3855625525
  H        44.6682327798       35.1162359831        23.803964164638
  H        24.4595977808        3.0293275462       12.0544162500
  H        25.6110994285        4.8666094014       13.2936174079
  H        23.2028617031        7.7630114548       11.2189355575
  H        22.0635891359        5.9141455582        9.9785893739
  H        23.8108927950        5.7754271632       14.7636934800
  H        44.9535485554       34.3897368971        9.6946298678
  H        44.9018997453       34.2068339456        22.480587416838
  H        40.6654518161       33.2084472027       10.8528919483
  H        23.1498392508        1.9579191984        8.0024296811
  H        25.7637924778       19.6595798201        19.938979012138
  H        23.6037048911       19.7131151784        18.691901477638
  H        22.3065521558       16.1951209330        20.798419379438
  H        24.4759662489       16.1514865761        22.041774446838
  H        23.7045826265       17.6954553822        17.229145449738
  H        35.1157566094       15.4508518465        19.984879470838
  H        37.2422959971       15.3799671057        18.679133110838
  H        38.6925731670       18.7784561791        20.882145534438
  H        36.5665664315       18.8229433989        22.197058295838
  H        37.2115263195       17.3277807740        17.236143393538
  H        20.3232744479       17.9622112699        20.639588929738
  H        35.2001431236       15.3926692898       12.0283690963
  H        37.3269399725       15.3344166284       13.3276144959
  H        38.7021581038       18.8225185675       11.2205436590
  H        36.5639710990       18.8715092904        9.9244111721
  H        37.2277960287       17.3251224784       14.7964410503
  H        35.1344234861       26.6787835350       11.3915832747
  H        28.5024872545       21.0762616158        23.873587528538
  H        25.7311113930       19.6663151941       12.1198419307
  H        23.5469703140       19.7239538548       13.3337809583
  H        22.3083835121       16.1662356967       11.2594198540
  H        24.4965100805       16.1250018635       10.0450962796
  H        23.6937571107       17.6877544560       14.7906154512
  H        29.0114078385       21.7112766318        9.7354333040
  H        29.2020651937       21.6967020751        22.543255222938
  H        32.1095379651       18.6307696069       10.8879382927
  H        27.3690418560       19.0240128133        8.0750425405
  H        14.8510312233       19.6665605446       12.1132730637
  H        17.0189354793       19.7203065268       13.3510367625
  H        18.3009498301       16.1959035349       11.2458095650
  H        16.1294385467       16.1580355139       10.0072888693
  H        16.9100240676       17.7159391984       14.8156520084
  H        46.0908951060       15.4422413908       12.0705095583
  H        43.9673524678       15.3802606195       13.3774846672
  H        42.5469396560       18.8140066413       11.2099693355
  H        44.6706888491       18.8501174097        9.8921578236
  H        44.0137545307       17.3185514788       14.8412681960
  H        20.2920061158       17.9352497906       11.4044986228
  H        46.0383824250       15.3794810455        20.030177538038
  H        43.9060070069       15.3072415818        18.739057510538
  H        42.5092122223       18.7749616082        20.866109248338
  H        44.6485104223       18.8335869878        22.157975175738
  H        43.9972044099       17.2925425112        17.280102438538
  H        46.1989898913       26.6826304261        20.613105624338
  H        52.7413081127       21.0626894399        8.1946405669
  H        14.8630567017       19.6762836654        19.892721061838
  H        17.0577496528       19.7505193395        18.697539859638
  H        18.3130256190       16.2114345404        20.793690122638
  H        16.1208002320       16.1613996236        21.999237398138
  H        16.9206404160       17.7245117453        17.254021285838
  H        52.3225622725       21.6737119834        22.284426493738
  H        52.0136385168       21.7026793659        9.4954576735
  H        49.0672233741       18.6077269003        21.194079923138
  H        13.2473210806       19.0162059244        23.965927983338
  H        29.9665693921       12.4787494709       12.2175123621
  H        28.9173198816       10.5385983173       13.4019307246
  H        25.2856028379       11.1563986312       11.1830176876
  H        26.3527160890       13.0814402047        9.9948198004
  H        27.1940036765       11.6559313049       14.7845068735
  H        30.9838161136       22.7659027530       11.9859998377
  H        31.9873068843       24.6357017104       13.3000084098
  H        35.6821727229       24.1440693167       11.1537645423
  H        34.6605607270       22.2786044384        9.8386441438
  H        33.6613686076       23.5748612525       14.7523766956
  H        25.7667795626        8.5790116296       11.3802559869
  H        30.9062029780       22.6840957031        19.885856995238
  H        31.9244751544       24.5642548330        18.600737886038
  H        35.5500278598       24.1427935997        20.877227502938
  H        34.5103654401       22.2751404698        22.170084616038
  H        33.6274369312       23.5625732561        17.192206249538
  H        40.5832233878       17.0563326873        20.652923949838
  H        32.5165271841       14.1444396206        8.2442984573
  H        29.8540296625       12.4423679385        19.981236902038
  H        28.8182681193       10.5631741262        18.703861080138
  H        25.1041250165       11.2182944683        20.769581986538
  H        26.1566697997       13.0952704570        22.047866641538
  H        27.1473895635       11.6741779766        17.223312285638
  H        33.2987126443       14.2258155324        22.428575367138
  H        33.4075044249       14.3964971201        9.6018411349
  H        32.0806380858       18.4955221232        21.095590935138
  H        30.2024927401       14.1368436623        8.0743954773
  H        16.1179088241        2.9628880954       12.1294230713
  H        14.9523777749        4.8197841099       13.3221422004
  H        17.3655805867        7.6857141870       11.2104689299
  H        18.5146219039        5.8183804541       10.0107101934
  H        16.7527804904        5.7391723110       14.7713841240
  H        44.8278212853       32.1401892855       11.9770767426
  H        45.9370823133       30.3413094423       13.3065684959
  H        43.6824286187       27.3780815782       11.1522470835
  H        42.5997412011       29.1900097748        9.8096146513
  H        44.2300860621       29.4366156022       14.7688565839
  H        14.8502486313        8.5457078899       11.3632462498
  H        44.8998228243       32.2339856732        19.921647531538
  H        46.0246194743       30.4129052849        18.642054430338
  H        43.7631441552       27.4840452372        20.835022921838
  H        42.6454492161       29.3178089022        22.114140774538
  H        44.2682168276       29.4703976254        17.207958682538
  H        35.0320265923       26.6261850608        20.622709997138
  H        36.6052646677       35.1338391790        8.1806810944
  H        16.1433824474        3.0127387633        19.893826469738
  H        14.9736912398        4.8560893387        18.678157906238
  H        17.3960169052        7.7470481930        20.744594665738
  H        18.5429799022        5.8931488132        21.972292212838
  H        16.7641887932        5.7552578498        17.208931698438
  H        36.2788534505       34.4819696835        22.263058837638
  H        36.3808590137       34.2090937201        9.4997417066
  H        40.5797757737       33.2023927701        21.143623895238
  H        17.4706484126        1.9472049768        23.963797853538
  H        28.8347436885       18.9762888153       12.3271147544
  H        28.6832857397       18.8106050668        19.750237247738
  H        30.8467821736       15.3180816813        19.780501649538
  H        32.4010873475       16.4604559124       12.2647848386
  H        29.6714320426       19.0377749494       14.7361606777
  H        18.8540247583        0.8692239844       12.3351106848
  H        40.5283295391       35.2289793809        19.941954812538
  H        42.3237657460       34.4190353253        19.580027778238
  H        22.0873465194        0.6922056763       12.3516957726
  H        11.5963166795       18.7128751357       12.3827064175
  H        52.2649714842       18.4313194105        19.667465486038
  H        49.2550658723       16.4765252437        19.573969819938
  H        10.1506421391       15.7983415341       12.2923311732
  H        50.8500949257       17.6927921377        19.943784633238
  H        10.0460249034       17.3948304848       12.0518968725
  H        20.2154036770        0.0021531863       12.0418725205
  H        39.1836695213       36.1244118722        19.676326489138
 Ni        30.3512147112       17.4318823643        18.738950691138
 Ni        30.9907515415       16.0330963977       14.904444316238
 Ni        29.8836010202       17.3087936289        16.404065555838
 Ni        30.3512258021       17.3330745143       13.1643545241
  O        10.6498534783       14.3651794704        21.475621206138
  O        12.6130576949       14.6573932144        22.573670332438
  O        49.1476196025       16.8459223361        23.979506425038