     572
 i =       99, E =     -4777.6903598774
  C        11.8588379736       14.0535122398        21.731319193338
  C        12.4563655045       12.8906373888        21.012984595438
  C        11.7045602050       12.1714434626        20.071609185538
  C        12.2809555294       11.1092394405        19.379281383238
  C        13.6216463525       10.7397209150        19.606772279038
  C        14.3549740037       11.4436130803        20.579873850738
  C        13.7820681430       12.5085982975        21.271353357438
  C        14.2611543198        9.6490230912        18.833402669438
  C        14.2563652729        9.6568812890        17.411710422438
  C        13.7431526528       10.7589908638        16.657820665238
  C        49.1269992305       21.2331958329        21.869432401338
  C        48.5502739839       22.4012146906        21.142350665938
  C        49.3002524832       23.0684723606        20.161285524638
  C        48.7333213478       24.1076641461        19.428139713338
  C        47.4028136689       24.5093434424        19.656844899138
  C        46.6719431270       23.8605781003        20.670480524938
  C        47.2343873087       22.8156264746        21.399768124438
  C        46.7725212943       25.5870326452        18.859604658438
  C        46.7613086333       25.5573370949        17.437850379438
  C        47.2612614007       24.4422518405        16.694356919038
  C        14.8603139949        8.5705517626        16.698449195938
  C        14.8919813349        8.5971169631        19.510054482638
  C        49.1133304168       21.2034644168       10.1453646428
  C        48.5279512132       22.3648640815       10.8725734504
  C        49.2670948879       23.0254866175       11.8655984222
  C        48.6907463316       24.0600546305       12.5970475701
  C        47.3603757161       24.4568892721       12.3586970877
  C        46.6400504632       23.8120939940       11.3350411314
  C        47.2136366458       22.7761867671       10.6032869351
  C        46.7218401597       25.5318200811       13.1497118256
  C        46.7334659722       25.5281323797       14.5714206877
  C        47.2489280414       24.4289267560       15.3278046626
  C        40.6369862122       17.1633842683       15.3224327200
  C        40.6578347883       17.1875019255       12.5136538121
  C        11.8830704896       14.0865470922       10.2855396728
  C        12.4724557476       12.9108493760       10.9898524449
  C        11.7148503057       12.1774051402       11.9156985367
  C        12.2814805157       11.0949583169       12.5840853733
  C        13.6204144911       10.7214903226       12.3524934592
  C        14.3585084187       11.4373508241       11.3920084511
  C        13.7930482319       12.5185185271       10.7193345447
  C        14.2539856278        9.6246879616       13.1228661330
  C        14.2525857112        9.6445767763       14.5447022712
  C        13.7426313980       10.7534849703       15.2917777882
  C        22.5126967863        3.2440718985        21.743324134838
  C        23.2297137227        4.3479383881        21.044602821138
  C        24.2266856835        4.0651249272        20.099178064338
  C        24.8565879432        5.1028067371        19.417172393438
  C        24.5051804856        6.4454107537        19.660469817738
  C        23.5365732031        6.7197607843        20.643131651038
  C        22.9019531152        5.6838586062        21.323586825238
  C        25.1134510930        7.5501442426        18.884506045138
  C        25.0845662701        7.5431124748        17.463099320638
  C        24.3797228798        6.5453199425        16.717481895738
  C        38.2989590058       31.9285571926        21.841572841538
  C        37.5594908816       30.8397153399        21.138940910938
  C        36.5953165278       31.1463505895        20.166349900338
  C        35.9676054133       30.1281082299        19.454048818638
  C        36.2888945234       28.7772986633        19.691610683738
  C        37.2223218286       28.4780295632        20.701915153238
  C        37.8540993450       29.4952532557        21.413462463738
  C        35.6809680352       27.6887237798        18.892223387938
  C        35.7216452980       27.7036927212        17.470640466038
  C        36.4350174743       28.7041933998        16.737689054338
  C        25.7085418680        8.6122397694        16.742926989038
  C        25.7129962370        8.6236417768        19.555088504038
  C        38.3308609547       31.9616767393       10.1595816071
  C        37.6143885148       30.8887656172       10.9085461046
  C        36.6829261016       31.1985753318       11.9114673106
  C        36.0739223111       30.1814744128       12.6443595895
  C        36.3817044249       28.8283468827       12.3982257265
  C        37.2936974597       28.5283686365       11.3676767039
  C        37.9046282973       29.5420272739       10.6360431650
  C        35.7680011272       27.7300125870       13.1802790999
  C        35.7659078135       27.7249906855       14.6026787134
  C        36.4549278638       28.7151730069       15.3712539939
  C        46.1353879090       26.6207291140       15.2815678462
  C        46.0879154288       26.5802055429       12.4736597973
  C        22.4610191003        3.2558804013       10.2578521548
  C        23.1553411422        4.3640626358       10.9810167765
  C        24.1575815611        4.0771177508       11.9214685082
  C        24.7860147736        5.1065743001       12.6179483304
  C        24.4325188981        6.4527952519       12.3966907784
  C        23.4533666808        6.7329723017       11.4247071398
  C        22.8202575275        5.7037564954       10.7286698250
  C        25.0644055915        7.5501056164       13.1711256163
  C        25.0599495012        7.5424788343       14.5939854099
  C        24.3662494846        6.5459788949       15.3508595107
  C        26.6244063174       17.8628438851        21.773310219538
  C        25.3156700748       17.9061932412        21.048672020338
  C        25.0585166507       18.8967081216        20.087832077738
  C        23.8453676267       18.9154357922        19.401758778238
  C        22.8525150030       17.9465816747        19.653978626638
  C        23.1064506135       16.9784705016        20.643874354138
  C        24.3215060255       16.9546217427        21.327645873838
  C        21.5790323132       17.9301305493        18.889617208438
  C        21.5782645096       17.9044496879        17.467015858938
  C        22.7833615423       17.7780122211        16.706131518238
  C        34.4398747161       17.1947301465        21.910024202838
  C        35.7317889879       17.1517495909        21.162059494038
  C        35.9380628280       16.1906563618        20.160262008238
  C        37.1177667578       16.1867529686        19.421101786038
  C        38.1239874215       17.1410655819        19.667290476538
  C        37.9205579546       18.0823223462        20.693842524138
  C        36.7370431377       18.0930207196        21.428127960438
  C        39.3794457943       17.1547994982        18.883897201038
  C        39.3772256018       17.1786268428        17.462868818838
  C        38.1715512832       17.3085407926        16.703985303138
  C        20.3316440204       17.9218066800        16.758386193338
  C        20.3538963848       17.9353981510        19.571631084238
  C        34.4784810706       17.2477033101       10.1788547832
  C        35.7818502204       17.1798967182       10.9037568768
  C        35.9990202459       16.1995578467       11.8831074034
  C        37.1841734863       16.1885214799       12.6131658774
  C        38.1803630422       17.1564852033       12.3810980355
  C        37.9699831802       18.1117213189       11.3696704409
  C        36.7820342990       18.1283363883       10.6436535968
  C        39.4265193317       17.1789303293       13.1769907222
  C        39.4013494251       17.1913662100       14.5975319194
  C        38.1828497281       17.3124206022       15.3374661856
  C        35.1270233059       26.6479526599       15.3027393714
  C        35.1815816954       26.6592647271       12.4932977793
  C        26.5722167888       17.8273267207       10.3238564161
  C        25.2557640735       17.8714091549       11.0296285108
  C        24.9899845242       18.8756897428       11.9726287240
  C        23.7727794478       18.8981167970       12.6480352046
  C        22.7915791089       17.9166125313       12.4030404080
  C        23.0512900371       16.9377459629       11.4269039015
  C        24.2696078627       16.9129004772       10.7505131809
  C        21.5281454853       17.8962027689       13.1765289008
  C        21.5522040570       17.8856247266       14.5980301851
  C        22.7706968110       17.7690316169       15.3398565998
  C        14.0467833958       17.8283296706       10.2893208764
  C        15.3507365498       17.8837007593       11.0152573848
  C        15.6074923707       18.8844541744       11.9654763691
  C        16.8162888733       18.9030758987       12.6587649547
  C        17.8027866734       17.9238383766       12.4241310469
  C        17.5507984027       16.9475339167       11.4417104190
  C        16.3414516471       16.9241647706       10.7501002491
  C        19.0719616118       17.9048939370       13.1929323365
  C        19.0709396006       17.9007209515       14.6154288374
  C        17.8641791611       17.8017253192       15.3770634602
  C        46.8073778436       17.2206885165       10.1596743014
  C        45.5200313798       17.1663029613       10.9086435872
  C        45.3131579646       16.1946469536       11.8996396765
  C        44.1334591699       16.1864135667       12.6387886325
  C        43.1326686844       17.1499180215       12.4072738545
  C        43.3370071331       18.1013928103       11.3901365985
  C        44.5173061921       18.1137391007       10.6524765580
  C        41.8802992198       17.1700247746       13.1948196635
  C        41.8847276634       17.1719410448       14.6162155464
  C        43.0930039988       17.2626273146       15.3765278911
  C        20.3178912803       17.9111866688       15.3234537152
  C        20.2959533848       17.8857538655       12.5102629807
  C        46.7861553205       17.2311231737        21.880427545438
  C        45.4818453366       17.1275666943        21.167597700738
  C        45.2616657937       16.1347060943        20.201245385138
  C        44.0733034675       16.1145884947        19.475549409538
  C        43.0769238740       17.0841549357        19.700232098138
  C        43.2864020531       18.0449626976        20.706766837738
  C        44.4759782602       18.0718105668        21.426988587138
  C        41.8326351320       17.1168493765        18.901741663838
  C        41.8605805167       17.1430906517        17.481326658538
  C        43.0815555829       17.2464772844        16.742911164938
  C        46.1532097580       26.6371823029        16.716119996638
  C        46.1626170533       26.6561673711        19.525744024038
  C        14.0460416427       17.8317229509        21.698499925338
  C        15.3673307730       17.9056895187        21.008599859938
  C        15.6407907233       18.9189824387        20.077647043438
  C        16.8701112997       18.9552714180        19.423284189638
  C        17.8539272044       17.9774460787        19.673866297738
  C        17.5874712427       16.9935994384        20.643443685938
  C        16.3601398926       16.9566341400        21.301202454338
  C        19.1212328595       17.9506592243        18.904815296738
  C        19.0966531761       17.9229426541        17.483378835938
  C        17.8767628334       17.8117500238        16.743052656638
  C        28.8105072002       14.0929580592       10.3916052902
  C        28.1963698110       12.9184123405       11.0794179183
  C        28.9234946050       12.1692523641       12.0162694644
  C        28.3247344774       11.0940870047       12.6684410202
  C        26.9847652927       10.7434551833       12.4067314414
  C        26.2791607695       11.4725121157       11.4329224174
  C        26.8757592488       12.5482363911       10.7797351847
  C        26.3174541548        9.6622996102       13.1679198033
  C        26.3098698058        9.6860441937       14.5889927388
  C        26.8187257794       10.7964443606       15.3349002448
  C        32.1806215227       21.2420821362       10.1424044784
  C        32.7770869393       22.4087273642       10.8634429131
  C        32.0241412723       23.0949258428       11.8287391237
  C        32.5935485684       24.1341966508       12.5587683586
  C        33.9323768018       24.5157752205       12.3450262116
  C        34.6685489911       23.8480493907       11.3482416126
  C        34.1009016837       22.8034952049       10.6199886016
  C        34.5587008566       25.5912590833       13.1485358118
  C        34.5384828780       25.5653724193       14.5702504962
  C        34.0189651273       24.4533665069       15.3056217090
  C        25.7001487230        8.6084872874       15.3082207861
  C        25.6783904268        8.6130384749       12.4947368141
  C        32.0810092166       21.2051146753        21.868522222438
  C        32.6532447037       22.3668304660        21.122674833038
  C        31.9175756691       23.0217666177        20.122979130138
  C        32.4919035256       24.0598009615        19.390824098638
  C        33.8157350612       24.4736880015        19.639737785438
  C        34.5328291973       23.8322382216        20.667952628838
  C        33.9637328156       22.7903064652        21.395000398638
  C        34.4567457384       25.5589201348        18.860152990038
  C        34.4849144916       25.5494164808        17.438209531638
  C        33.9923246870       24.4463734480        16.671954387438
  C        40.6244601174       17.1526530863        16.756193255138
  C        40.6013139198       17.1406552573        19.565500139738
  C        28.7474968994       14.0674915010        21.811167873938
  C        28.1385576343       12.9183077684        21.073588810438
  C        28.8775857575       12.2208248869        20.106040234838
  C        28.2994402121       11.1633581553        19.407341196138
  C        26.9659314875       10.7772483442        19.650967974138
  C        26.2438598015       11.4626715257        20.645721586238
  C        26.8207308782       12.5204933170        21.346327664938
  C        26.3257858686        9.6857338167        18.877773880838
  C        26.3153671362        9.6981626960        17.455898139238
  C        26.8192222270       10.8035462159        16.700758232538
  C        18.1354188502        3.1810415392       10.3171421428
  C        17.4061844822        4.2782578334       11.0157611952
  C        16.3904006689        3.9999462325       11.9432306342
  C        15.7427284280        5.0399481564       12.6067271937
  C        16.0947224406        6.3836627877       12.3670809075
  C        17.0841736494        6.6531467421       11.4033727755
  C        17.7332138125        5.6157772217       10.7383139628
  C        15.4704073155        7.4913578585       13.1301378418
  C        15.4855678458        7.4905775464       14.5518546279
  C        16.1871419201        6.4969710901       15.3050254625
  C        42.9458307710       31.8595645350       10.0728579165
  C        43.6461923324       30.7718687405       10.8168303706
  C        44.5914862401       31.0932126078       11.8031155421
  C        45.1971701046       30.0876714173       12.5508161251
  C        44.8710109537       28.7345703847       12.3357443627
  C        43.9454623400       28.4202243653       11.3222640506
  C        43.3366739542       29.4253610067       10.5741897675
  C        45.4885543683       27.6552498707       13.1389446889
  C        45.4926438608       27.6808397435       14.5606473191
  C        44.8055157643       28.6888494345       15.3072946356
  C        14.8565848065        8.5630528039       15.2642301664
  C        14.8752307177        8.5631941156       12.4515535213
  C        42.9464843185       31.9616502433        21.798799080138
  C        43.6917848404       30.8855034849        21.085386078938
  C        44.6562168377       31.1914258147        20.112927550838
  C        45.2777226844       30.1718417503        19.395176306638
  C        44.9541883495       28.8215031943        19.633009893138
  C        44.0209433544       28.5238380157        20.644009880338
  C        43.3926885412       29.5405901585        21.356216121038
  C        45.5631530487       27.7240914883        18.847726990938
  C        45.5332557352       27.7173335717        17.426434147438
  C        44.8268321402       28.7074934727        16.673482250838
  C        35.1020608686       26.6386746326        16.737839951338
  C        35.0662844054       26.6159375986        19.548132634338
  C        18.1486258944        3.2470493934        21.696377268938
  C        17.4300771048        4.3438533524        20.987106965138
  C        16.4147706633        4.0526053100        20.063622724638
  C        15.7664959171        5.0832560201        19.388250081938
  C        16.1212759363        6.4284765064        19.610900928838
  C        17.1127723621        6.7118360939        20.568038383738
  C        17.7604231036        5.6829113884        21.247803633038
  C        15.4907548334        7.5241584346        18.838463731038
  C        15.4965673202        7.5074716413        17.417334027038
  C        16.1933351422        6.5057754278        16.670631781938
  H        10.6723303685       12.4653521246        19.894812890438
  H        11.6946110085       10.5505283014        18.652967225338
  H        15.3921447663       11.1693525672        20.761302794938
  H        14.3516933868       13.0721350840        22.006422811338
  H        13.3761371603       11.6311006939        17.191148615538
  H        50.3229436838       22.7483904421        19.976504384638
  H        49.3198014610       24.6228790030        18.670524698938
  H        45.6425039681       24.1614615587        20.853756125238
  H        46.6634584910       22.2904489232        22.161967632838
  H        47.6299103258       23.5759238953        17.236042658238
  H        14.8724798397        8.5884693817        20.598360320438
  H        50.2871283571       22.7026080069       12.0605513745
  H        49.2691228080       24.5754793286       13.3605877736
  H        45.6107139099       24.1094801823       11.1458274629
  H        46.6529333978       22.2541288970        9.8315693482
  H        47.6077974523       23.5518495116       14.7968940018
  H        40.6651367098       17.1515915416       11.4259887860
  H        48.6871073498       14.0949784530        23.789823678438
  H        10.6812815643       12.4662528061       12.0928782731
  H        11.6896415745       10.5243371682       13.2965584434
  H        15.3940765549       11.1597831308       11.2063540598
  H        14.3655356833       13.0881619104        9.9911331783
  H        13.3758453694       11.6221128417       14.7531365818
  H        47.9302689491       14.2183263934        9.7109514487
  H        47.7801240605       14.3737640917        22.485033714838
  H        49.0847511713       18.5528551932       10.8676677042
  H        10.4163316298       14.1342466428        7.9987236868
  H        24.4854270945        3.0258451070        19.909206668138
  H        25.6297262289        4.8834135248        18.684000295938
  H        23.2582575389        7.7535119987        20.837304824138
  H        22.1318605593        5.8862865543        22.063947391438
  H        23.8181626616        5.7891097982        17.258225546238
  H        36.3629787569       32.1904062995        19.970155190238
  H        35.2208633413       30.3704217804        18.701054636338
  H        37.4782250185       27.4379710982        20.893467681938
  H        38.6005725366       29.2711208862        22.171854653538
  H        36.9974800860       29.4532594360        17.287364798338
  H        25.7481564366        8.6066345334        20.642889549038
  H        36.4557577265       32.2429245594       12.1133807590
  H        35.3450361705       30.4282163418       13.4131895360
  H        37.5446689548       27.4881106219       11.1710931166
  H        38.6297956966       29.3146235227        9.8584546761
  H        37.0336275021       29.4723735256       14.8499656675
  H        46.1094758496       26.5876904028       11.3856222698
  H        44.6683617480       35.1162194779        23.803728805938
  H        24.4349432249        3.0387004553       12.0880429176
  H        25.5669302502        4.8769498256       13.3397617353
  H        23.1689070883        7.7677050176       11.2446503701
  H        22.0485750700        5.9175068648        9.9927234303
  H        23.7938203678        5.7908320701       14.8200168621
  H        44.9539714159       34.3905196689        9.6952575478
  H        44.9019858437       34.2068491321        22.480458637538
  H        40.6665481038       33.2094916964       10.8533621798
  H        23.1504576297        1.9578985382        8.0054188699
  H        25.8229701570       19.6459945481        19.894777391738
  H        23.6509358911       19.6905492797        18.663441525138
  H        22.3523823235       16.2209978360        20.848083765638
  H        24.5280571681       16.1933997444        22.076431676838
  H        23.7235261890       17.6583003073        17.236608136238
  H        35.1584508326       15.4559062492        19.973075288438
  H        37.2784647418       15.4334167546        18.652877806338
  H        38.6903062804       18.8265866435        20.887553585338
  H        36.5619267908       18.8334769934        22.205261879738
  H        37.2331855968       17.4335454999        17.236590698238
  H        20.3608192986       17.9790892519        20.659363463538
  H        35.2197544529       15.4633329442       12.0661286822
  H        37.3535097043       15.4253960479       13.3697480654
  H        38.7341536749       18.8643285042       11.1865570079
  H        36.5956719624       18.8826502152        9.8827894048
  H        37.2532122747       17.4390498187       14.7901615986
  H        35.1631328723       26.6841545704       11.4053821850
  H        28.5068207222       21.0745504726        23.951145401338
  H        25.7502392333       19.6314706009       12.1569631236
  H        23.5661556814       19.6811715582       13.3744409782
  H        22.3018188452       16.1734751294       11.2315146503
  H        24.4864757665       16.1456107533       10.0110964499
  H        23.7011905961       17.6424324071       14.7945421872
  H        29.0047658547       21.7216107727        9.7578896361
  H        29.1675694574       21.7380060489        22.615173960738
  H        32.1039755355       18.5654520249       10.9731212585
  H        27.4017808676       19.0654208961        8.0753162391
  H        14.8493741922       19.6434167574       12.1453850630
  H        17.0115531318       19.6854066059       13.3890724844
  H        18.3019664362       16.1837308832       11.2511607509
  H        16.1356231355       16.1569598642       10.0074821087
  H        16.9215675243       17.6854270542       14.8501521281
  H        46.0935832487       15.4599164956       12.0832359064
  H        43.9716923586       15.4254693893       13.3990642824
  H        42.5713819370       18.8527999592       11.2085975083
  H        44.6933794543       18.8621814840        9.8835098093
  H        44.0355236303       17.3759516921       14.8485080259
  H        20.2897439816       17.9171228243       11.4221793137
  H        46.0376216253       15.3945011701        20.019767466438
  H        43.9046187843       15.3454309237        18.725003466038
  H        42.5209874560       18.7969780702        20.886613891338
  H        44.6609969959       18.8332616292        22.180583567238
  H        44.0153350284       17.3461854406        17.288669346738
  H        46.1996773973       26.6828154561        20.613175808438
  H        52.7413345576       21.0626797819        8.1947291300
  H        14.8801095384       19.6719276082        19.883451732338
  H        17.0810246988       19.7438976927        18.704191435738
  H        18.3384274166       16.2324765345        20.845109902838
  H        16.1393258577       16.1838370044        22.033453284338
  H        16.9435395144       17.7030693795        17.287445907838
  H        52.3228291079       21.6733967130        22.283925182238
  H        52.0134716447       21.7022135971        9.4956742244
  H        49.0680054215       18.6078248044        21.193786342638
  H        13.2479025400       19.0159194392        23.967231167638
  H        29.9570269505       12.4429812200       12.2166508157
  H        28.8901920703       10.5116065761       13.3926954934
  H        25.2438836814       11.2113254147       11.2232982396
  H        26.3293230593       13.1321608872       10.0430934931
  H        27.1830221707       11.6639904351       14.7931024920
  H        30.9951896632       22.7879477668       12.0005315336
  H        32.0035321859       24.6660738797       13.3020481516
  H        35.7047526682       24.1327448564       11.1770577267
  H        34.6745978758       22.2626797789        9.8706736529
  H        33.6640019887       23.5867161675       14.7554042091
  H        25.7050019553        8.5956310907       11.4066081400
  H        30.8971614856       22.7003745196        19.926339403838
  H        31.9129509319       24.5688520477        18.623197111038
  H        35.5573648572       24.1395890577        20.867415318738
  H        34.5237623315       22.2740795679        22.171174227938
  H        33.6171209692       23.5736570951        17.198616819438
  H        40.5923993621       17.0934879719        20.652771893138
  H        32.5070689220       14.1486983289        8.2513745668
  H        29.9064892545       12.5217666117        19.921707451038
  H        28.8805657612       10.6174801665        18.667146011338
  H        25.2120188408       11.1774952695        20.840550840538
  H        26.2602718785       13.0654725557        22.102305401538
  H        27.1829732602       11.6764672581        17.234834560738
  H        33.3108818115       14.2306613292        22.459481620838
  H        33.4098881528       14.4116550721        9.5959878318
  H        32.1173577505       18.5187789745        21.173719559638
  H        30.2184333216       14.1919022026        8.0730394365
  H        16.1182728065        2.9634607369       12.1296119109
  H        14.9532353030        4.8206158086       13.3223520189
  H        17.3667257776        7.6860022622       11.2103204300
  H        18.5153241125        5.8184465062       10.0105497941
  H        16.7537734455        5.7396814026       14.7715318325
  H        44.8276077316       32.1403092116       11.9774507056
  H        45.9368973412       30.3414544645       13.3068943740
  H        43.6830715501       27.3781167204       11.1518847329
  H        42.6003585390       29.1900194424        9.8092353698
  H        44.2301738075       29.4366379871       14.7689973713
  H        14.8516230540        8.5465437057       11.3633282787
  H        44.8996053217       32.2341195927        19.921324983538
  H        46.0244987893       30.4130958437        18.641818971938
  H        43.7642497067       27.4840889600        20.835812594838
  H        42.6463897809       29.3177999697        22.114861716838
  H        44.2683831388       29.4704173542        17.208073588038
  H        35.0174904571       26.6281418750        20.635374421038
  H        36.6052606186       35.1340953453        8.1806232151
  H        16.1435925121        3.0130452049        19.893967484438
  H        14.9741049043        4.8564575923        18.678229683538
  H        17.3964435383        7.7472768840        20.744811506238
  H        18.5434384095        5.8933861386        21.972410677138
  H        16.7648425807        5.7555897590        17.209065514038
  H        36.2787257104       34.4824472406        22.262904615238
  H        36.3809537865       34.2090730058        9.4994449904
  H        40.5795536714       33.2022003822        21.143541998838
  H        17.4709809026        1.9474220014        23.963882748438
  H        29.0986223564       19.3643220851       12.5145006229
  H        29.7260871304       19.6469510062        19.564222769438
  H        31.9067656555       15.7579284540        19.548685873838
  H        31.3264164768       15.5527870648       12.4840619852
  H        28.0865360329       18.0555967265       14.7230142808
  H        29.4768132589       15.1618907745       14.5014887687
  H        31.6858177344       20.0294962273        17.467472712638
  H        33.1190832896       16.9085394924        17.385300325438
  H        28.8369266917       16.8495970981        17.400294255938
  H        32.2899899196       18.3998976609       14.8371318913
  H        18.8537477864        0.8692318917       12.3351547554
  H        40.5283147470       35.2290354924        19.941809546238
  H        42.3240984719       34.4188614835        19.580136950638
  H        22.0876635190        0.6921678723       12.3514900668
  H        11.5969404489       18.7127854149       12.3825879669
  H        52.2648911167       18.4311185534        19.666914735838
  H        49.2546233038       16.4770805603        19.574566079238
  H        10.1496554749       15.7982395435       12.2930325672
  H        50.8500566250       17.6925020528        19.943979076238
  H        10.0459526572       17.3944851042       12.0519249617
  H        20.2151469831        0.0024253507       12.0419093287
  H        39.1840259598       36.1248013403        19.676375486438
 Ni        30.9469389256       17.7616584288        18.741250891338
 Ni        31.0750962879       16.3682081785        16.071428831338