     576
 i =      216, E =     -4780.0561442339
  C        11.8587234678       14.0535990623        21.731353268638
  C        12.4562410811       12.8906286294        21.013037418038
  C        11.7043980733       12.1714995699        20.071653896738
  C        12.2807757128       11.1092904831        19.379296247238
  C        13.6214429316       10.7397070119        19.606795120738
  C        14.3547436190       11.4434816569        20.580003976738
  C        13.7818722193       12.5084605378        21.271524781238
  C        14.2609687550        9.6490149507        18.833418384238
  C        14.2561945539        9.6568635831        17.411717716538
  C        13.7429253790       10.7589483939        16.657823392938
  C        49.1268301031       21.2331409320        21.869501512038
  C        48.5500001046       22.4011210576        21.142419549738
  C        49.3001183572       23.0685640201        20.161590484838
  C        48.7331759780       24.1077056337        19.428395504538
  C        47.4025662901       24.5091676472        19.656840737538
  C        46.6714950579       23.8600709994        20.670112223238
  C        47.2339222798       22.8151424954        21.399469768938
  C        46.7722919213       25.5868816431        18.859594897138
  C        46.7612088605       25.5572701062        17.437833798238
  C        47.2611308300       24.4421515519        16.694372413538
  C        14.8602600437        8.5705847022        16.698471140038
  C        14.8918734707        8.5971463906        19.510063469438
  C        49.1131780119       21.2033540070       10.1452934990
  C        48.5277322623       22.3647281716       10.8725287141
  C        49.2670033783       23.0255442411       11.8653282723
  C        48.6906679520       24.0600587801       12.5968483278
  C        47.3602023011       24.4566737218       12.3587494940
  C        46.6396629987       23.8115866805       11.3354439088
  C        47.2132313719       22.7756990649       10.6036213155
  C        46.7217692994       25.5316899870       13.1497378547
  C        46.7334294228       25.5280558209       14.5714358158
  C        47.2488132048       24.4288280950       15.3278234590
  C        40.6186191945       17.1285352580       15.3192358435
  C        40.6336352031       17.1449273433       12.5089087016
  C        11.8829269092       14.0866721428       10.2855195300
  C        12.4722937337       12.9108840092       10.9898197394
  C        11.7146428946       12.1774075208       11.9156006112
  C        12.2812096340       11.0949151478       12.5840006342
  C        13.6201504803       10.7214392634       12.3524847696
  C        14.3582750571       11.4372665384       11.3919971036
  C        13.7928545248       12.5184606591       10.7193313176
  C        14.2537332518        9.6246394741       13.1228732933
  C        14.2524399178        9.6445751152       14.5447198045
  C        13.7423577149       10.7534416424       15.2917762397
  C        22.5100857058        3.2444770841        21.741436759238
  C        23.2202428601        4.3502782600        21.038704497038
  C        24.2131993330        4.0715442722        20.087972206838
  C        24.8363087555        5.1120881907        19.403953363438
  C        24.4822074791        6.4534539134        19.650564251738
  C        23.5170844953        6.7235937838        20.637835612038
  C        22.8893009118        5.6849658365        21.320260985138
  C        25.0866471252        7.5611297713        18.875819907538
  C        25.0612923587        7.5555491672        17.454242335338
  C        24.3604437952        6.5572192544        16.705594340438
  C        38.3030696812       31.9302513569        21.838936702638
  C        37.5739660031       30.8405862038        21.128851814938
  C        36.6140038469       31.1443993468        20.151599058038
  C        35.9973884811       30.1239869701        19.433005598038
  C        36.3260762724       28.7751454103        19.670821018238
  C        37.2566230185       28.4786779509        20.684337141738
  C        37.8773823302       29.4978497699        21.401626299638
  C        35.7235282363       27.6834955739        18.873885497138
  C        35.7541682894       27.6984121494        17.452620057238
  C        36.4611899045       28.6999280937        16.715274154938
  C        25.6866240688        8.6255940595        16.736595652038
  C        25.6836046027        8.6347375388        19.548834428638
  C        38.3291020211       31.9623165191       10.1560862460
  C        37.6078983995       30.8885506192       10.8980822404
  C        36.6779621119       31.1967077065       11.9026647212
  C        36.0683281856       30.1777438435       12.6319754858
  C        36.3746474215       28.8255116317       12.3800076586
  C        37.2823510837       28.5271905726       11.3454677818
  C        37.8940912473       29.5427052178       10.6175116011
  C        35.7666296503       27.7263658849       13.1640478130
  C        35.7761685657       27.7203864100       14.5859970600
  C        36.4712394035       28.7107737206       15.3487666781
  C        46.1354484819       26.6207247791       15.2815415816
  C        46.0879251523       26.5800931274       12.4736697167
  C        22.4621385944        3.2566016176       10.2572028365
  C        23.1581290537        4.3663089493       10.9774568182
  C        24.1624586243        4.0822184436       11.9165887616
  C        24.7915145085        5.1137129327       12.6099016663
  C        24.4366163628        6.4594049030       12.3873419571
  C        23.4557563231        6.7367510156       11.4163047399
  C        22.8221021429        5.7055595813       10.7233664525
  C        25.0659982027        7.5584589794       13.1624312668
  C        25.0516437552        7.5535660424       14.5852293891
  C        24.3540695935        6.5573520528       15.3389178566
  C        26.6234747206       17.8625018000        21.771534764238
  C        25.3154721683       17.9095023740        21.048021165738
  C        25.0522436607       18.9120904101        20.101149318138
  C        23.8397300670       18.9333957702        19.414330829538
  C        22.8522800150       17.9560815759        19.653940533738
  C        23.1111759642       16.9762818867        20.631013311838
  C        24.3262864534       16.9490058609        21.314233031738
  C        21.5787160712       17.9434614711        18.889664312038
  C        21.5791544937       17.9252038723        17.467053981238
  C        22.7852975741       17.8052155966        16.706860649838
  C        34.4442342601       17.1906494401        21.943528933338
  C        35.7304218628       17.1366917561        21.188712452438
  C        35.9056498357       16.1999817102        20.158251138938
  C        37.0826056936       16.1873965101        19.413478709738
  C        38.1147521357       17.1095838043        19.677375356338
  C        37.9383132451       18.0277676971        20.730886055338
  C        36.7599303172       18.0467911991        21.472981118738
  C        39.3673473505       17.1202592150        18.886876530838
  C        39.3629949130       17.1468855830        17.464659058238
  C        38.1571690945       17.2824130637        16.707265348738
  C        20.3324273752       17.9418669423        16.758391865938
  C        20.3538465245       17.9437208729        19.571933103638
  C        34.4278614393       17.2147103693       10.2196872862
  C        35.7351857332       17.1382329574       10.9320968965
  C        35.9466036817       16.1789144182       11.9337320692
  C        37.1409791829       16.1634517432       12.6486685038
  C        38.1520082421       17.1084606818       12.3848354620
  C        37.9463698208       18.0405504764       11.3500227621
  C        36.7515810785       18.0596405317       10.6356651101
  C        39.4025964070       17.1358466460       13.1752717653
  C        39.3809390734       17.1557880774       14.5969273115
  C        38.1653486833       17.2847710802       15.3405767160
  C        35.1436389375       26.6425984175       15.2901951540
  C        35.1766247112       26.6555132338       12.4811089106
  C        26.5698171509       17.8287592674       10.3219817033
  C        25.2551075776       17.8759367142       11.0280897070
  C        24.9943021157       18.8801762964       11.9726493129
  C        23.7773706483       18.9077708150       12.6478216870
  C        22.7918722975       17.9307500663       12.4024326809
  C        23.0470980814       16.9513524841       11.4253961362
  C        24.2647505910       16.9218279047       10.7482308916
  C        21.5290755239       17.9139415337       13.1767090439
  C        21.5536898894       17.9081212220       14.5984155657
  C        22.7725049756       17.7965713566       15.3405317657
  C        14.0468294090       17.8290260863       10.2890974753
  C        15.3511036424       17.8869043268       11.0148549327
  C        15.6066920095       18.8905505843       11.9623781943
  C        16.8154804416       18.9128166432       12.6555965596
  C        17.8033510006       17.9343175692       12.4237436234
  C        17.5524393470       16.9548285840       11.4441723642
  C        16.3430799943       16.9279684953       10.7524323321
  C        19.0726603252       17.9194028076       13.1927315090
  C        19.0719598238       17.9186547282       14.6152971804
  C        17.8652546974       17.8189489968       15.3768269333
  C        46.8025721487       17.2188388285       10.1594503099
  C        45.5108079450       17.1568723395       10.9043473016
  C        45.3035696486       16.1811364203       11.8919580566
  C        44.1205824436       16.1630493738       12.6268088537
  C        43.1130438812       17.1206815356       12.3971039987
  C        43.3173956726       18.0754633645       11.3823125833
  C        44.5011002037       18.0975284647       10.6484550140
  C        41.8589010574       17.1336806340       13.1863728597
  C        41.8649827127       17.1372648637       14.6089402779
  C        43.0741650392       17.2305998502       15.3674649290
  C        20.3189541744       17.9323396419       15.3234205610
  C        20.2967854202       17.8998521437       12.5104733309
  C        46.7837740970       17.2309001096        21.878015279338
  C        45.4796814814       17.1237183260        21.162768581538
  C        45.2632377937       16.1294210329        20.196421345138
  C        44.0743100568       16.1015113026        19.471122665138
  C        43.0709630530       17.0645815249        19.694534003538
  C        43.2777620772       18.0278834859        20.699871373738
  C        44.4679028791       18.0625682337        21.419983275338
  C        41.8235746768       17.0884587098        18.897835388938
  C        41.8472703236       17.1126495066        17.476604957638
  C        43.0656911829       17.2166024790        16.734218662038
  C        46.1532580535       26.6371888762        16.716089821638
  C        46.1624639913       26.6560408819        19.525761878538
  C        14.0459061882       17.8320736404        21.698654162438
  C        15.3672860648       17.9076550312        21.008711914538
  C        15.6402543919       18.9236684497        20.080582530438
  C        16.8695131875       18.9624304766        19.426281617738
  C        17.8538332355       17.9843985387        19.674013796338
  C        17.5876917839       16.9974162311        20.640531940338
  C        16.3604377120       16.9581508781        21.298455878038
  C        19.1212692295       17.9613022249        18.904999599738
  C        19.0973167102       17.9389126799        17.483410210938
  C        17.8775966916       17.8279259106        16.742808789138
  C        28.7917426406       14.1167773756       10.3988812214
  C        28.1910095805       12.9390978065       11.0874999874
  C        28.9148010856       12.2024216848       12.0366009893
  C        28.3199177170       11.1214191430       12.6830480960
  C        26.9871237529       10.7545285154       12.4063455784
  C        26.2858432119       11.4721289612       11.4205838403
  C        26.8785066684       12.5515616512       10.7713041297
  C        26.3183846823        9.6719017743       13.1646257584
  C        26.2992200168        9.6989610117       14.5857324954
  C        26.7996780062       10.8118710269       15.3336308864
  C        32.1806749737       21.2382397140       10.1434185513
  C        32.7752718943       22.4050342574       10.8616924956
  C        32.0240399000       23.0886500324       11.8303631621
  C        32.5944111160       24.1277383473       12.5593892715
  C        33.9316745468       24.5112954150       12.3404430005
  C        34.6654711284       23.8467439548       11.3397560069
  C        34.0975271553       22.8020997504       10.6127554923
  C        34.5599043691       25.5870346556       13.1409593981
  C        34.5492431232       25.5601446167       14.5625317257
  C        34.0345622519       24.4480840095       15.3011827295
  C        25.6861355684        8.6211792524       15.3019958938
  C        25.6849872140        8.6202987100       12.4887668755
  C        32.1042123192       21.2267139387        21.870968269938
  C        32.6932269868       22.3798797016        21.127782621938
  C        31.9556640150       23.0463486224        20.136962762338
  C        32.5361617706       24.0757135422        19.399518716638
  C        33.8678828246       24.4693657633        19.635767175938
  C        34.5884645528       23.8167213957        20.654340086638
  C        34.0128619541       22.7814739118        21.386398518538
  C        34.5077428413       25.5506095263        18.851318515938
  C        34.5216760758       25.5419452280        17.429541203538
  C        34.0204103850       24.4398633058        16.667754101638
  C        40.6090791709       17.1197262505        16.754241746338
  C        40.5929940864       17.1070947737        19.563814767538
  C        28.7391717019       14.0646260475        21.807729637538
  C        28.1272293249       12.9194514733        21.070094899938
  C        28.8638275659       12.2136860625        20.106414232338
  C        28.2787396001       11.1607308953        19.406962279738
  C        26.9418008114       10.7854562791        19.647839734038
  C        26.2224943417       11.4772394639        20.640271898538
  C        26.8052815310       12.5320698165        21.339977600238
  C        26.2974485173        9.6972860657        18.873503815738
  C        26.2898134968        9.7118631535        17.451771768038
  C        26.7938145974       10.8189746828        16.699468318438
  C        18.1353678011        3.1811188446       10.3171994369
  C        17.4060746136        4.2782975955       11.0157430435
  C        16.3904450312        3.9999527924       11.9433855423
  C        15.7427654382        5.0399429290       12.6068884990
  C        16.0945729842        6.3836883686       12.3670918443
  C        17.0838654826        6.6531790875       11.4032166422
  C        17.7329282377        5.6158354544       10.7381510254
  C        15.4702236375        7.4913561789       13.1301444484
  C        15.4855253673        7.4906440776       14.5518570909
  C        16.1871110736        6.4970480230       15.3050269936
  C        42.9459911597       31.8595393621       10.0729085362
  C        43.6464182922       30.7718953776       10.8167987481
  C        44.5916454964       31.0932350667       11.8031636227
  C        45.1973446536       30.0876740368       12.5508104983
  C        44.8711999282       28.7345689191       12.3357202478
  C        43.9457394170       28.4202390402       11.3221544355
  C        43.3369325965       29.4253778003       10.5741107943
  C        45.4887573240       27.6552674515       13.1389147849
  C        45.4928190431       27.6808905023       14.5606099426
  C        44.8057816040       28.6889621416       15.3072532875
  C        14.8564147278        8.5630304929       15.2642501462
  C        14.8750309428        8.5631802460       12.4515470718
  C        42.9465404756       31.9616269520        21.798750367938
  C        43.6918390194       30.8855176297        21.085393434138
  C        44.6561100006       31.1914404733        20.112769745938
  C        45.2776960209       30.1718417998        19.395124457738
  C        44.9541745980       28.8214869793        19.632973576638
  C        44.0211276250       28.5238284204        20.644182935938
  C        43.3928078027       29.5405948999        21.356304374538
  C        45.5631622746       27.7240678539        18.847724190038
  C        45.5333221300       27.7173431053        17.426419903938
  C        44.8270615922       28.7076094071        16.673442319138
  C        35.1310790892       26.6323298211        16.724921781138
  C        35.1195740586       26.6080640476        19.534817936138
  C        18.1486167601        3.2471228269        21.696344309038
  C        17.4301181679        4.3439117854        20.987053572838
  C        16.4148205608        4.0526665912        20.063554058638
  C        15.7665321991        5.0833086227        19.388185990638
  C        16.1212458412        6.4285405792        19.610880214338
  C        17.1127007797        6.7118960423        20.568063345438
  C        17.7603647845        5.6829836736        21.247823398938
  C        15.4906729830        7.5242049756        18.838476442338
  C        15.4965525372        7.5075302121        17.417353203638
  C        16.1933686648        6.5058920606        16.670629665138
  H        10.6721917931       12.4654760079        19.894807146538
  H        11.6944026278       10.5506338869        18.652955881638
  H        15.3918768923       11.1691282364        20.761499582738
  H        14.3514305905       13.0719292630        22.006692631038
  H        13.3757883677       11.6310015578        17.191165591038
  H        50.3228878366       22.7486632250        19.976985393638
  H        49.3197149798       24.6231293461        18.670969919038
  H        45.6419075651       24.1606382505        20.853110803138
  H        46.6628393177       22.2896264230        22.161333402638
  H        47.6296683143       23.5757884730        17.236080327438
  H        14.8722617112        8.5884694845        20.598366441638
  H        50.2871037605       22.7027991250       12.0601035288
  H        49.2691200062       24.5756500770       13.3602055704
  H        45.6101906131       24.1086807777       11.1465166217
  H        46.6523436171       22.2533082007        9.8322471147
  H        47.6076030935       23.5517302011       14.7969077639
  H        40.6385799839       17.1051222833       11.4212666232
  H        48.6868523852       14.0950484367        23.789674908238
  H        10.6810529088       12.4662314122       12.0927605881
  H        11.6893258563       10.5243040489       13.2964558322
  H        15.3938421696       11.1596879140       11.2063612860
  H        14.3653060480       13.0880836752        9.9910884429
  H        13.3754462195       11.6220083931       14.7531137041
  H        47.9300483723       14.2182426212        9.7110005086
  H        47.7799462527       14.3732595472        22.484653369238
  H        49.0831473127       18.5521106729       10.8672376881
  H        10.4157636478       14.1344051224        7.9987693678
  H        24.4745434243        3.0333301293        19.895682103938
  H        25.6070007445        4.8959241647        18.667271858438
  H        23.2363444448        7.7561966575        20.834617673738
  H        22.1220999293        5.8840956086        22.064475051038
  H        23.7967637894        5.8008161956        17.243894915838
  H        36.3762718972       32.1875970185        19.957309065438
  H        35.2525027630       30.3625573691        18.677028105438
  H        37.5178730296       27.4396942609        20.874335941538
  H        38.6216464074       29.2776181614        22.163230174138
  H        37.0271560291       29.4490399445        17.261331478138
  H        25.7176069294        8.6160210887        20.636650957538
  H        36.4538320029       32.2407873379       12.1092972883
  H        35.3417141718       30.4220269932       13.4037213341
  H        37.5308180901       27.4871828691       11.1444890863
  H        38.6175793190       29.3177991145        9.8376849089
  H        37.0459914791       29.4677909773       14.8230089752
  H        46.1094402934       26.5874981219       11.3856381339
  H        44.6683963897       35.1162457330        23.803713814538
  H        24.4408896454        3.0443726685       12.0851132120
  H        25.5732122590        4.8857958355       13.3314373878
  H        23.1697821667        7.7708279990       11.2348626229
  H        22.0489819907        5.9176186444        9.9884325213
  H        23.7851497673        5.8014939798       14.8053373918
  H        44.9542407145       34.3907744953        9.6954425502
  H        44.9021763736       34.2070202818        22.480335228538
  H        40.6664562829       33.2093451343       10.8532541122
  H        23.1503734598        1.9582275023        8.0047615560
  H        25.8082836545       19.6736648997        19.923199920838
  H        23.6415018649       19.7168601594        18.685976125938
  H        22.3607371957       16.2125620748        20.825004167638
  H        24.5365069815       16.1785931966        22.052474234938
  H        23.7272592144       17.6881641357        17.235133170638
  H        35.1005431835       15.4997901431        19.945980403038
  H        37.2166278115       15.4520151416        18.623208482438
  H        38.7252142731       18.7497447324        20.939276922338
  H        36.6083881993       18.7715667900        22.269587435038
  H        37.2187035631       17.4124875817        17.238516288238
  H        20.3605998163       17.9814050981        20.659890795938
  H        35.1573575505       15.4626332336       12.1498609616
  H        37.3027956426       15.4158102270       13.4219749929
  H        38.7200666760       18.7761446888       11.1398391371
  H        36.5726499417       18.7969231632        9.8565392921
  H        37.2326182625       17.4159365048       14.7995593054
  H        35.1504582574       26.6805519764       11.3933529704
  H        28.4969430001       21.0808358354        23.871139760238
  H        25.7582562119       19.6313066546       12.1597204857
  H        23.5749584995       19.6910420469       13.3751054626
  H        22.2945082198       16.1901311288       11.2301477468
  H        24.4776142353       16.1539442573       10.0082779638
  H        23.7044946121       17.6725840303       14.7971856800
  H        29.0035136333       21.7267179473        9.7407285665
  H        29.2001061360       21.7155391010        22.561943008038
  H        32.1093834059       18.6005076783       10.9626178473
  H        27.4009007313       19.0710305014        8.0788312281
  H        14.8475245705       19.6489305977       12.1402648372
  H        17.0096134188       19.6975448633       13.3836303059
  H        18.3044292260       16.1912693909       11.2558661259
  H        16.1382696969       16.1583580753       10.0119888953
  H        16.9227972012       17.7019666596       14.8498014267
  H        46.0867913380       15.4497669383       12.0773231910
  H        43.9624504715       15.3981484440       13.3839463038
  H        42.5487094129       18.8234182398       11.1991150722
  H        44.6733675379       18.8498966160        9.8823005796
  H        44.0158251302       17.3440523375       14.8379474596
  H        20.2905453328       17.9275332770       11.4222819175
  H        46.0424465959       15.3926177026        20.014930596838
  H        43.9105453669       15.3296721605        18.722210793538
  H        42.5085845842       18.7759993354        20.880093147938
  H        44.6476410391       18.8261604334        22.172816201438
  H        44.0010173885       17.3183179644        17.277003963238
  H        46.1994470901       26.6825999935        20.613206258238
  H        52.7411601574       21.0626030137        8.1946746461
  H        14.8791455016       19.6767483868        19.888626588838
  H        17.0800144941       19.7533661034        18.709621193638
  H        18.3388281194       16.2358369594        20.839797207438
  H        16.1399687877       16.1831412556        22.028497067238
  H        16.9444147122       17.7177848159        17.286938932838
  H        52.3223827362       21.6732020435        22.284060703838
  H        52.0131361375       21.7019894746        9.4956090321
  H        49.0670758365       18.6073619741        21.193948121338
  H        13.2475311297       19.0161758316        23.967203422938
  H        29.9408671003       12.4897786020       12.2549342458
  H        28.8831854703       10.5490592294       13.4169158605
  H        25.2560654799       11.1993392227       11.1991760701
  H        26.3343393588       13.1259673076       10.0256982933
  H        27.1643699066       11.6812297016       14.7949762573
  H        30.9961197994       22.7808407681       12.0060543185
  H        32.0067270449       24.6572924624       13.3061235425
  H        35.7002900608       24.1341620530       11.1650008092
  H        34.6694192909       22.2638092243        9.8603491615
  H        33.6735655644       23.5818794424       14.7542377154
  H        25.7194886011        8.6006931945       11.4008723568
  H        30.9290246051       22.7396488286        19.950946390238
  H        31.9573291324       24.5936475312        18.637832818338
  H        35.6194332473       24.1097143409        20.841910907538
  H        34.5743954967       22.2544709145        22.154357715338
  H        33.6486385304       23.5670986141        17.196893054138
  H        40.5877307037       17.0584350191        20.651054945038
  H        32.5138881118       14.1498822013        8.2441446793
  H        29.8973963238       12.4996291913        19.924602699638
  H        28.8573206288       10.6104696902        18.668073463538
  H        25.1881968291       11.1998752958        20.833284267738
  H        26.2465396865       13.0826753491        22.093095827438
  H        27.1531724580       11.6934768551        17.234091786338
  H        33.2981990175       14.1987524412        22.436879204538
  H        33.4046849920       14.3743438170        9.6170677013
  H        32.1445838527       18.5419933144        21.188365330238
  H        30.2045964655       14.1846122609        8.0819248913
  H        16.1184302340        2.9634563051       12.1298815749
  H        14.9533626477        4.8205903827       13.3226102603
  H        17.3662423091        7.6860554124       11.2100239955
  H        18.5149130589        5.8185335698       10.0102605348
  H        16.7538265431        5.7398063954       14.7715571947
  H        44.8277535792       32.1403254534       11.9775334246
  H        45.9370593452       30.3414718345       13.3068887884
  H        43.6834317103       27.3781229550       11.1517136296
  H        42.6006846878       29.1899897792        9.8091102998
  H        44.2305128146       29.4368010426       14.7689581969
  H        14.8513099744        8.5464840458       11.3633227688
  H        44.8995057878       32.2341184360        19.921125906538
  H        46.0243787523       30.4130860217        18.641666900438
  H        43.7645205105       27.4840623182        20.836055442138
  H        42.6467142674       29.3177737512        22.115138845338
  H        44.2686243825       29.4705646196        17.208007795638
  H        35.0786399057       26.6200936111        20.622347957138
  H        36.6052106648       35.1341488546        8.1805665281
  H        16.1436646148        3.0131087446        19.893857433438
  H        14.9741484117        4.8565214638        18.678154813838
  H        17.3962826419        7.7473457595        20.744907005638
  H        18.5433401724        5.8934557533        21.972471997338
  H        16.7649210024        5.7557366884        17.209050774838
  H        36.2785367929       34.4827741586        22.262782624238
  H        36.3808942568       34.2091999374        9.4995187880
  H        40.5809596601       33.2030608343        21.143146890838
  H        17.4708378493        1.9477016804        23.963945750238
  H        29.0751159270       19.5049140903       12.5395635454
  H        29.9045706539       19.6765241186        19.575150420438
  H        30.8608455887       15.4913737969        19.752423838138
  H        31.0689991384       15.5428766719       12.4789627816
  H        27.9666788058       18.0116072456       14.8779376592
  H        29.2835173198       15.6402557593       14.8621732501
  H        31.4889938843       19.8832172871        17.334092149638
  H        33.1767125772       17.7003547099        17.204621156138
  H        28.1227544721       18.5687543801        18.100193178838
  H        32.5449439641       18.3177602901       14.2882510100
  H        18.8533920965        0.8690643247       12.3351432029
  H        40.5282716082       35.2291272766        19.941737587838
  H        42.3248064326       34.4196264445        19.579836187138
  H        22.0877418941        0.6921071313       12.3517949949
  H        11.5969764413       18.7128816202       12.3822634810
  H        52.2648912877       18.4310883585        19.667278633438
  H        49.2551437648       16.4768682730        19.574241587238
  H        10.1507012437       15.7981988932       12.2924577452
  H        50.8499858731       17.6924587646        19.944011819838
  H        10.0463455543       17.3945254790       12.0519067928
  H        20.2146837777        0.0023165980       12.0419818345
  H        39.1840280666       36.1248499504        19.676363738638
 Ni        30.9855132512       17.7371615053        18.736435983038
 Ni        31.1148083071       16.8456205044        15.991772092838