     576
 i =       53, E =     -4780.0903405859
  C        11.8587751607       14.0535076884        21.731368507038
  C        12.4563026669       12.8905726745        21.013069009638
  C        11.7045208539       12.1713076163        20.071728525538
  C        12.2809519600       11.1091047507        19.379412923938
  C        13.6216740536       10.7396445519        19.606851673438
  C        14.3549655518       11.4435907732        20.579949212638
  C        13.7820200762       12.5085684996        21.271424816738
  C        14.2612185619        9.6489563378        18.833452833438
  C        14.2563591566        9.6567752947        17.411749742638
  C        13.7430637133       10.7588654737        16.657888740138
  C        49.1269426540       21.2331135025        21.869487903938
  C        48.5501991060       22.4011456030        21.142448110138
  C        49.3002223784       23.0684337023        20.161441275138
  C        48.7332942562       24.1075812915        19.428233057638
  C        47.4027805900       24.5092565413        19.656907811438
  C        46.6718513261       23.8604448764        20.670473985538
  C        47.2342993613       22.8155371839        21.399820530138
  C        46.7725001307       25.5869448839        18.859648590538
  C        46.7613605252       25.5573191492        17.437887881138
  C        47.2612698112       24.4422244559        16.694379456738
  C        14.8602749777        8.5704352592        16.698457069338
  C        14.8921656563        8.5970914550        19.510072638138
  C        49.1132571691       21.2033922232       10.1453396487
  C        48.5278783005       22.3648284099       10.8725067367
  C        49.2671108076       23.0254900813       11.8654409288
  C        48.6908171790       24.0600558571       12.5969375481
  C        47.3604309177       24.4568944366       12.3586952670
  C        46.6400282698       23.8120719932       11.3351101622
  C        47.2135425751       22.7761448510       10.6033148746
  C        46.7219747704       25.5318632367       13.1497446079
  C        46.7335729578       25.5281648193       14.5714553339
  C        47.2490014965       24.4289393993       15.3278259507
  C        40.6204690709       17.1367857212       15.3101908596
  C        40.6310471408       17.1415479247       12.5000190677
  C        11.8830228504       14.0865870397       10.2855246391
  C        12.4723651053       12.9108500315       10.9898363286
  C        11.7147346549       12.1774453735       11.9156958076
  C        12.2813170414       11.0949905030       12.5841175997
  C        13.6202449671       10.7214882672       12.3525545899
  C        14.3583783459       11.4373120033       11.3920712125
  C        13.7929607958       12.5184938396       10.7193799037
  C        14.2537717684        9.6246312126       13.1229010365
  C        14.2524249327        9.6444746061       14.5447414472
  C        13.7424892741       10.7533709217       15.2918457619
  C        22.5110582601        3.2451413043        21.739429457338
  C        23.2227858403        4.3489808673        21.032990122538
  C        24.2177862495        4.0658397603        20.085312582338
  C        24.8460384257        5.1025866346        19.399651052038
  C        24.4958654474        6.4462122950        19.640447010238
  C        23.5269264324        6.7207268521        20.623229581938
  C        22.8941558281        5.6857827358        21.307577663038
  C        25.1097012639        7.5512002210        18.867163686438
  C        25.0952839376        7.5445470399        17.444949436838
  C        24.3976811107        6.5477149598        16.691388201938
  C        38.3035052370       31.9291858494        21.838375659938
  C        37.5761774738       30.8381606558        21.127999210938
  C        36.6185059808       31.1394108067        20.147656087638
  C        36.0043101423       30.1172413628        19.429178180838
  C        36.3327500685       28.7687324213        19.669956424638
  C        37.2607914140       28.4749440812        20.686656449038
  C        37.8793308014       29.4958199471        21.403589897738
  C        35.7331223197       27.6751912335        18.872794673738
  C        35.7669499426       27.6888422175        17.451466708338
  C        36.4735392053       28.6908967521        16.714354281838
  C        25.7276475767        8.6131427046        16.730805719638
  C        25.7052526670        8.6242028698        19.543156767638
  C        38.3291015911       31.9621444606       10.1559992146
  C        37.6086834244       30.8876615332       10.8974799025
  C        36.6814613162       31.1941338802       11.9050809443
  C        36.0738006401       30.1738698710       12.6342968283
  C        36.3791677193       28.8220264012       12.3789625071
  C        37.2836546983       28.5255209456       11.3410699614
  C        37.8935318246       29.5422337602       10.6133450573
  C        35.7741549517       27.7210889169       13.1627912724
  C        35.7878282561       27.7124557760       14.5846938676
  C        36.4830425130       28.7025000920       15.3478063191
  C        46.1355690191       26.6208062268       15.2816088298
  C        46.0880884849       26.5802769207       12.4737143590
  C        22.4691035199        3.2583726648       10.2570348838
  C        23.1799078760        4.3656807308       10.9708382812
  C        24.1875434606        4.0755402524       11.9052296507
  C        24.8303648237        5.1023934668       12.5939099075
  C        24.4879002135        6.4519222880       12.3731294740
  C        23.5046368488        6.7352411170       11.4058062983
  C        22.8572941385        5.7085522914       10.7170798089
  C        25.1261728911        7.5466855787       13.1509289064
  C        25.1045869564        7.5415757271       14.5744501649
  C        24.3997813036        6.5476320374       15.3246088163
  C        26.6231758589       17.8637216841        21.772593603438
  C        25.3166070660       17.9066822852        21.046949700738
  C        25.0594553182       18.8988261535        20.087462267838
  C        23.8464715354       18.9184125037        19.401374924838
  C        22.8534763476       17.9495865702        19.652792181038
  C        23.1074563133       16.9798464277        20.641216870338
  C        24.3225372001       16.9542625054        21.324395385238
  C        21.5797178492       17.9349329662        18.889015495138
  C        21.5795632409       17.9117115927        17.466376953538
  C        22.7848006466       17.7847686962        16.705848413438
  C        34.4352019193       17.1964514398        21.906855048138
  C        35.7254088597       17.1535783451        21.158112562038
  C        35.9256640267       16.1996073824        20.148123705138
  C        37.1066885715       16.1923865982        19.411119920938
  C        38.1206863485       17.1369634760        19.664425090038
  C        37.9224464074       18.0714691277        20.698804745338
  C        36.7383119698       18.0850718912        21.432288494538
  C        39.3750771373       17.1496170834        18.877780965238
  C        39.3684288672       17.1678660803        17.455956236638
  C        38.1609150724       17.2984045383        16.700321983738
  C        20.3327569525       17.9310396759        16.758026900338
  C        20.3548668471       17.9389437113        19.571488187638
  C        34.4223679518       17.2164273071       10.2236673553
  C        35.7295536371       17.1373403727       10.9343085517
  C        35.9456987919       16.1735820251       11.9306741135
  C        37.1415195480       16.1583105780       12.6431919652
  C        38.1493908488       17.1069333809       12.3806442400
  C        37.9396041101       18.0428010248       11.3503448945
  C        36.7431103421       18.0624648373       10.6393842680
  C        39.4013906569       17.1352313068       13.1685098848
  C        39.3816656043       17.1607740848       14.5897688855
  C        38.1667076879       17.2932086615       15.3337751140
  C        35.1586664219       26.6325355737       15.2885023637
  C        35.1824953330       26.6514182907       12.4794590073
  C        26.5707586544       17.8277190717       10.3243315191
  C        25.2563064053       17.8742657210       11.0296361174
  C        24.9958995017       18.8745310629       11.9785630474
  C        23.7784462913       18.8999746706       12.6528702865
  C        22.7921212638       17.9250167725       12.4023233199
  C        23.0468354186       16.9501875116       11.4206290063
  C        24.2649387347       16.9226234880       10.7443801897
  C        21.5290941430       17.9058268390       13.1761803962
  C        21.5535530701       17.8955059592       14.5978610905
  C        22.7719059870       17.7770429935       15.3395509239
  C        14.0470010718       17.8289852389       10.2890730336
  C        15.3512245152       17.8863115719       11.0145501849
  C        15.6070939949       18.8887295505       11.9633240303
  C        16.8159090935       18.9097765841       12.6565346985
  C        17.8035327676       17.9312992158       12.4234142691
  C        17.5523974436       16.9532568037       11.4424298057
  C        16.3430506377       16.9275536477       10.7507564576
  C        19.0727256625       17.9143864719       13.1924558873
  C        19.0719595109       17.9114788753       14.6150484361
  C        17.8652177063       17.8133205437       15.3767631416
  C        46.8026779843       17.2178572356       10.1573411882
  C        45.5092149614       17.1539907874       10.8985267891
  C        45.2996670934       16.1755704634       11.8827425720
  C        44.1154589180       16.1570104305       12.6153130927
  C        43.1102111890       17.1168897781       12.3861240663
  C        43.3162258356       18.0736143090       11.3737966057
  C        44.5012002433       18.0961666809       10.6423006872
  C        41.8569999492       17.1318392736       13.1759621877
  C        41.8656082141       17.1408127744       14.5982260419
  C        43.0762099038       17.2352303041       15.3545547835
  C        20.3190096384       17.9217746813       15.3230660711
  C        20.2967702578       17.8950435724       12.5099711959
  C        46.7852013340       17.2330679954        21.876084615638
  C        45.4830621357       17.1325421157        21.156175325338
  C        45.2631967251       16.1386646500        20.190342437138
  C        44.0755633148       16.1169644060        19.462653721438
  C        43.0775964587       17.0862621626        19.683109409738
  C        43.2883711338       18.0505011119        20.686551455938
  C        44.4769024091       18.0785234236        21.409338292938
  C        41.8300196375       17.1134069637        18.887304323038
  C        41.8521046865       17.1302779820        17.466010972438
  C        43.0698256505       17.2275582960        16.721454564438
  C        46.1533464941       26.6372230162        16.716168553438
  C        46.1626673740       26.6561038406        19.525815036638
  C        14.0462949135       17.8320460859        21.698568101838
  C        15.3677835195       17.9069952698        21.008858476838
  C        15.6414026184       18.9219595441        20.079710866238
  C        16.8707645499       18.9595288514        19.425422584538
  C        17.8547317849       17.9812948901        19.674023571338
  C        17.5880682477       16.9956463384        20.641807620538
  C        16.3607400777       16.9575172844        21.299657223138
  C        19.1221663425       17.9561082534        18.904834901538
  C        19.0977899379       17.9315195119        17.483248688138
  C        17.8778278162       17.8222234660        16.742789542338
  C        28.8173067643       14.1420133473       10.4085749272
  C        28.2391762819       12.9547430560       11.1015680614
  C        28.9658441368       12.2256581033       12.0548295680
  C        28.3811842727       11.1340214162       12.6951511744
  C        27.0554455216       10.7463937284       12.4092335322
  C        26.3529764769       11.4565874801       11.4186939242
  C        26.9343278130       12.5457465731       10.7764600928
  C        26.3884398260        9.6571015167       13.1619983464
  C        26.3578373282        9.6843498902       14.5831977723
  C        26.8485393116       10.7993013919       15.3343999379
  C        32.1803914587       21.2359867847       10.1452169393
  C        32.7765706240       22.4020034338       10.8620105549
  C        32.0322164142       23.0766002549       11.8421432476
  C        32.6054191469       24.1149537145       12.5698322050
  C        33.9383309303       24.5064740548       12.3385626700
  C        34.6646259085       23.8508795057       11.3265167163
  C        34.0940159265       22.8072015575       10.6004655566
  C        34.5699471629       25.5802319227       13.1388763855
  C        34.5657009201       25.5495464080       14.5604810628
  C        34.0584308325       24.4336623233       15.2984121582
  C        25.7379559401        8.6074305099       15.2956100729
  C        25.7555216233        8.6063535739       12.4821166406
  C        32.1042593499       21.2217350440        21.867339350838
  C        32.6966010132       22.3701314743        21.120096821838
  C        31.9646246166       23.0318796706        20.121959780638
  C        32.5480643211       24.0609504518        19.386193513538
  C        33.8770004887       24.4593521433        19.631244032038
  C        34.5916609002       23.8109820183        20.656660331938
  C        34.0134220772       22.7760042460        21.386846531838
  C        34.5197943529       25.5403905326        18.848781554838
  C        34.5391594245       25.5296692128        17.427091000138
  C        34.0447930294       24.4247522333        16.664933208838
  C        40.6133048059       17.1359017728        16.744808864938
  C        40.6001578465       17.1393992249        19.554858805738
  C        28.7478237814       14.0668180874        21.808857796238
  C        28.1395407244       12.9185116945        21.071305462338
  C        28.8762522487       12.2231086627        20.100234486038
  C        28.2973905411       11.1652116759        19.402813473538
  C        26.9649376318       10.7762279426        19.649023972838
  C        26.2453429720       11.4595064551        20.647369832038
  C        26.8229015037       12.5173878329        21.347444732438
  C        26.3248714946        9.6866553957        18.871998866338
  C        26.3253234450        9.7002440548        17.449811750338
  C        26.8309132409       10.8082765127        16.699993347838
  C        18.1354628947        3.1811453596       10.3170670109
  C        17.4059810012        4.2783290237       11.0154150640
  C        16.3901642620        3.9999117162       11.9428441802
  C        15.7424292706        5.0398394730       12.6063943965
  C        16.0943669188        6.3835970522       12.3668668145
  C        17.0836857053        6.6531765509       11.4030378368
  C        17.7328370218        5.6158924744       10.7379418394
  C        15.4701007623        7.4912372472       13.1300633235
  C        15.4853331926        7.4904216725       14.5517919183
  C        16.1868823716        6.4967785288       15.3049366243
  C        42.9460002605       31.8596266345       10.0729118569
  C        43.6464643132       30.7719638142       10.8168129816
  C        44.5918712861       31.0933043306       11.8029968146
  C        45.1975861700       30.0877754458       12.5506897489
  C        44.8713140243       28.7346843452       12.3357529783
  C        43.9457079912       28.4203290348       11.3223336031
  C        43.3368826762       29.4254460839       10.5742713538
  C        45.4888322774       27.6553790166       13.1389895458
  C        45.4929148739       27.6809714339       14.5606901027
  C        44.8058836572       28.6890327288       15.3073524892
  C        14.8564290427        8.5629165065       15.2642256604
  C        14.8749537173        8.5631328896       12.4515418106
  C        42.9466334444       31.9616931524        21.798880674338
  C        43.6920727724       30.8855702653        21.085593475938
  C        44.6565538356       31.1914639932        20.113172622738
  C        45.2780825178       30.1718737777        19.395443694138
  C        44.9544457230       28.8215344206        19.633173795338
  C        44.0212705386       28.5238871885        20.644258018238
  C        43.3930000113       29.5406486060        21.356434818638
  C        45.5633242640       27.7241170733        18.847815951238
  C        45.5334740493       27.7174183526        17.426506805838
  C        44.8271806868       28.7076687838        16.673544210438
  C        35.1467656547       26.6214270418        16.723204621338
  C        35.1278824700       26.5997921270        19.533013407738
  C        18.1489163546        3.2470930448        21.696574379138
  C        17.4303789751        4.3439229429        20.987301903538
  C        16.4150699232        4.0526334996        20.063823186138
  C        15.7667706118        5.0832289310        19.388387426738
  C        16.1215154396        6.4284807974        19.610935862738
  C        17.1129980046        6.7118876013        20.568092633838
  C        17.7606738512        5.6830090036        21.247921241038
  C        15.4909212194        7.5241180018        18.838463768238
  C        15.4965841707        7.5073657770        17.417319483238
  C        16.1932262196        6.5056260425        16.670550373338
  H        10.6722742879       12.4651523242        19.894930087438
  H        11.6946023026       10.5503642985        18.653122540038
  H        15.3921607005       11.1694002544        20.761362533738
  H        14.3516405424       13.0721285349        22.006482537838
  H        13.3760461090       11.6309617330        17.191243709838
  H        50.3229273919       22.7483782388        19.976692937338
  H        49.3197996674       24.6228375929        18.670662303338
  H        45.6424009771       24.1613132697        20.853714034338
  H        46.6633566170       22.2903366178        22.161991599938
  H        47.6298712141       23.5758733957        17.236066754638
  H        14.8727352087        8.5884563887        20.598384514038
  H        50.2871544293       22.7026078524       12.0603314169
  H        49.2692699545       24.5754821326       13.3604173840
  H        45.6106686728       24.1094250300       11.1459870051
  H        46.6527439263       22.2540332743        9.8317011922
  H        47.6078524684       23.5518587634       14.7969120067
  H        40.6345251454       17.0989133166       11.4124854694
  H        48.6869775377       14.0951672553        23.789743435238
  H        10.6811679560       12.4663168210       12.0928566869
  H        11.6894463383       10.5244005304       13.2965917044
  H        15.3939463013       11.1597220294       11.2064495053
  H        14.3654820147       13.0881174751        9.9911895050
  H        13.3756498104       11.6219927198       14.7532291155
  H        47.9301456499       14.2187167352        9.7110094032
  H        47.7800025145       14.3737839436        22.484924399938
  H        49.0833897549       18.5521595096       10.8672399171
  H        10.4160312564       14.1343585383        7.9988319453
  H        24.4778786652        3.0265519730        19.897105599838
  H        25.6189353380        4.8810692532        18.666843571238
  H        23.2476274066        7.7544791809        20.816126373738
  H        22.1252283608        5.8902055341        22.048667307538
  H        23.8289762299        5.7923897782        17.226022999138
  H        36.3804110721       32.1820676659        19.950791492538
  H        35.2613698455       30.3543268356        18.670812205838
  H        37.5221516160       27.4364943615        20.879432054438
  H        38.6217038525       29.2770530969        22.167451355238
  H        37.0389660667       29.4403001179        17.260569129538
  H        25.7321966043        8.6057019076        20.631193585538
  H        36.4580881690       32.2378619134       12.1143318882
  H        35.3494476769       30.4168043656       13.4085886124
  H        37.5311067537       27.4858179623       11.1373130400
  H        38.6147538577       29.3186401473        9.8310686083
  H        37.0567985817       29.4604395395       14.8222662314
  H        46.1096407160       26.5877425088       11.3856823180
  H        44.6682879849       35.1161651824        23.803747364638
  H        24.4577300574        3.0356794770       12.0749723131
  H        25.6129532233        4.8666337504       13.3120190610
  H        23.2262841339        7.7712981632       11.2235798906
  H        22.0826592509        5.9284689442        9.9859214757
  H        23.8322481910        5.7928667881       14.7880460944
  H        44.9537960446       34.3904749611        9.6952706784
  H        44.9015514846       34.2068859564        22.480329722838
  H        40.6662093059       33.2094755583       10.8532890149
  H        23.1510842018        1.9581400086        8.0041741410
  H        25.8217428962       19.6507958118        19.896079568038
  H        23.6528866548       19.6940200061        18.663429566538
  H        22.3532899820       16.2221944452        20.844272584738
  H        24.5287193736       16.1913322345        22.071456297638
  H        23.7260327276       17.6620897223        17.233991124438
  H        35.1394078717       15.4754431564        19.948753690138
  H        37.2598918617       15.4446528793        18.636054762038
  H        38.6964901700       18.8095087334        20.899004206838
  H        36.5694777690       18.8213836212        22.214667483738
  H        37.2235601592       17.4313652991        17.232729573938
  H        20.3619149288       17.9802945428        20.659311400938
  H        35.1598667286       15.4526873202       12.1437802489
  H        37.3074726587       15.4081255573       13.4131620333
  H        38.7111739926       18.7810461544       11.1417445193
  H        36.5603741360       18.8030532060        9.8643867001
  H        37.2333341555       17.4221239205       14.7932307916
  H        35.1514492196       26.6796211226       11.3919090479
  H        28.4984571069       21.0798565723        23.883678347238
  H        25.7604627270       19.6237592394       12.1708203493
  H        23.5767500860       19.6796614232       13.3841847812
  H        22.2936223171       16.1907194652       11.2210497445
  H        24.4772249887       16.1579979509       10.0009640355
  H        23.7031850494       17.6487343205       14.7959317083
  H        29.0071307158       21.7230767260        9.7408689542
  H        29.1898142919       21.7250041794        22.566558281138
  H        32.0793605454       18.5843074187       10.9906496794
  H        27.4034320644       19.0709068590        8.0807607645
  H        14.8481699181       19.6471284432       12.1422030133
  H        17.0103096545       19.6935404101       13.3855465889
  H        18.3043082859       16.1898861534       11.2530487841
  H        16.1381141449       16.1589845743       10.0092820126
  H        16.9224444705       17.6979853988       14.8499251363
  H        46.0821560905       15.4433119615       12.0675954497
  H        43.9549026790       15.3910371315       13.3708592262
  H        42.5485522010       18.8228336066       11.1915784809
  H        44.6762115281       18.8500611799        9.8783068527
  H        44.0173047299       17.3441184397       14.8230891572
  H        20.2904322975       17.9256953279       11.4218568083
  H        46.0383576270       15.3968847280        20.011709553338
  H        43.9083796263       15.3448277058        18.714807234138
  H        42.5235628071       18.8037948717        20.863740906838
  H        44.6599763709       18.8420411063        22.161392527738
  H        44.0061542533       17.3295575567        17.262492973738
  H        46.1997027301       26.6826876391        20.613253407638
  H        52.7413020159       21.0626773717        8.1947052736
  H        14.8807401235       19.6752631661        19.886807226538
  H        17.0815913941       19.7496525863        18.707942882638
  H        18.3388954587       16.2340059513        20.842018381338
  H        16.1400557984       16.1833295659        22.030497656938
  H        16.9444833029       17.7137389775        17.287001228238
  H        52.3228791738       21.6733602841        22.283858897338
  H        52.0135785471       21.7023376982        9.4956692961
  H        49.0680373127       18.6077802499        21.193570868838
  H        13.2477508530       19.0160155845        23.967179852138
  H        29.9871217460       12.5241561522       12.2812897637
  H        28.9484742447       10.5693472980       13.4319123765
  H        25.3288338685       11.1704755397       11.1881623218
  H        26.3859163527       13.1120894277       10.0280789633
  H        27.2133209744       11.6701120712       14.7983169891
  H        31.0087165720       22.7610094476       12.0296194645
  H        32.0230744847       24.6370807816       13.3258760891
  H        35.6961027457       24.1441994690       11.1421536375
  H        34.6605835216       22.2757141160        9.8393309306
  H        33.7022019689       23.5654438111       14.7514438176
  H        25.7953145573        8.5875958761       11.3943188618
  H        30.9397745315       22.7226264411        19.929956895038
  H        31.9733621196       24.5751424725        18.618851415738
  H        35.6202975025       24.1073833230        20.851495027738
  H        34.5705233797       22.2534712137        22.160974180638
  H        33.6779724375       23.5495208904        17.193359449538
  H        40.5953393175       17.0970253023        20.642376174638
  H        32.5046891972       14.1569688369        8.2598247475
  H        29.9033566745       12.5256884918        19.909285410038
  H        28.8774749488       10.6227704998        18.659376958938
  H        25.2142006542       11.1737041186        20.844956007538
  H        26.2626882376       13.0603415140        22.104991360538
  H        27.1814948290       11.6854184626        17.236022283338
  H        33.3074491571       14.2301508388        22.454616273738
  H        33.4047195402       14.3857061979        9.6114410870
  H        32.0968961936       18.4926724132        21.146583711238
  H        30.2108454345       14.1932985363        8.0836853927
  H        16.1180658801        2.9634096257       12.1291816148
  H        14.9529457210        4.8204174292       13.3220034864
  H        17.3661212936        7.6860599473       11.2099637589
  H        18.5149499400        5.8186682506       10.0102081596
  H        16.7534115544        5.7394338529       14.7714117571
  H        44.8280832368       32.1403943637       11.9772422167
  H        45.9373975203       30.3415754008       13.3066738559
  H        43.6832527706       27.3782293833       11.1520399597
  H        42.6004789152       29.1900728693        9.8094173745
  H        44.2306225165       29.4368819654       14.7690611797
  H        14.8513026546        8.5465420770       11.3633166667
  H        44.9000235765       32.2341453503        19.921616695838
  H        46.0249075467       30.4131266055        18.642132181238
  H        43.7646012113       27.4841348915        20.836085949738
  H        42.6467499495       29.3178485097        22.115121446438
  H        44.2687876509       29.4706397985        17.208131159138
  H        35.0827972875       26.6134873257        20.620379069538
  H        36.6052009818       35.1341082140        8.1806187913
  H        16.1438639991        3.0130706373        19.894238029238
  H        14.9743497493        4.8563679295        18.678416726538
  H        17.3966132015        7.7473486514        20.744859369838
  H        18.5436406037        5.8935544582        21.972562058638
  H        16.7647444309        5.7554062862        17.208928123338
  H        36.2788570846       34.4825303926        22.262799192138
  H        36.3809079930       34.2092486234        9.4996911835
  H        40.5808459991       33.2033358245        21.143209860738
  H        17.4715300912        1.9478403563        23.964092398738
  H        29.0756531493       19.4111346566       12.5418698954
  H        29.7090170880       19.6493096392        19.568627315238
  H        31.7309573333       15.7985952383        19.517407260938
  H        31.0436233936       15.6538840687       12.5980990928
  H        28.1057167092       17.8908712467       14.8259731831
  H        29.3967458089       15.6753562850       14.9099591624
  H        31.4335535359       19.8570526731        17.504550559638
  H        32.9532523137       17.5895875079        17.458691032438
  H        28.3595582027       17.7894930819        18.112982125938
  H        32.2399889009       18.2820849298       14.7042115474
  H        18.8530373348        0.8689236088       12.3351985448
  H        40.5278970702       35.2287546040        19.941644877838
  H        42.3247600719       34.4191841928        19.579954463538
  H        22.0876546840        0.6920653029       12.3518882238
  H        11.5969445979       18.7127399132       12.3824361376
  H        52.2653055065       18.4313048219        19.667343464938
  H        49.2554158550       16.4767279125        19.574147952538
  H        10.1501853179       15.7982035505       12.2926385640
  H        50.8504602428       17.6924981659        19.943959162238
  H        10.0461054188       17.3946155703       12.0519201413
  H        20.2141493609        0.0021867920       12.0421092359
  H        39.1837080784       36.1245549878        19.676352642338
 Ni        31.0323614767       17.9094221474        18.905729689538
 Ni        31.2425433276       16.5644321865        16.155450621438