     571
 i =      393, E =     -4761.6851395067
  C        11.8587744967       14.0535591738        21.731416333838
  C        12.4563261243       12.8906110540        21.013109577938
  C        11.7046893208       12.1716943895        20.071393617138
  C        12.2810831291       11.1095237783        19.378987218438
  C        13.6216587975       10.7397488059        19.606771708138
  C        14.3547765551       11.4432282839        20.580344187238
  C        13.7818171957       12.5081380515        21.271908960938
  C        14.2611410908        9.6490256723        18.833406501138
  C        14.2564661380        9.6569667070        17.411702665038
  C        13.7432988809       10.7590661682        16.657757063138
  C        49.1266835283       21.2333175207        21.869662876138
  C        48.5498947302       22.4012321397        21.142571898438
  C        49.2999756887       23.0685576525        20.161615322938
  C        48.7330571824       24.1076788766        19.428379767038
  C        47.4024533126       24.5092107331        19.656840968138
  C        46.6714335588       23.8602781172        20.670275229638
  C        47.2338684556       22.8153983543        21.399683244038
  C        46.7722214736       25.5868901679        18.859525744138
  C        46.7613850305       25.5573826956        17.437755823538
  C        47.2613650264       24.4422941933        16.694284653738
  C        14.8603561663        8.5706324285        16.698391035338
  C        14.8919504196        8.5970514387        19.509987374738
  C        49.1131176729       21.2033645419       10.1454645299
  C        48.5277762918       22.3647967097       10.8724973786
  C        49.2670524877       23.0255138930       11.8653782966
  C        48.6907982700       24.0601542621       12.5967659492
  C        47.3602920010       24.4567511804       12.3587214700
  C        46.6399041888       23.8120220370       11.3350646481
  C        47.2133987643       22.7760337514       10.6033438884
  C        46.7219459111       25.5319195464       13.1495615534
  C        46.7336442780       25.5281808226       14.5712737545
  C        47.2491455913       24.4290406463       15.3277254976
  C        40.6202131743       17.0832246133       15.3092021960
  C        40.6259267154       17.0950551922       12.4996199462
  C        11.8829417934       14.0865737060       10.2854548113
  C        12.4721693492       12.9107339038       10.9897357423
  C        11.7146165740       12.1775563975       11.9158362617
  C        12.2811244479       11.0950732041       12.5842817262
  C        13.6198785289       10.7211945301       12.3523705401
  C        14.3578499166       11.4366187608       11.3914655658
  C        13.7924895983       12.5178164404       10.7187667777
  C        14.2534632695        9.6244369819       13.1227886415
  C        14.2524658954        9.6445279843       14.5446291590
  C        13.7425881518       10.7534753283       15.2917069594
  C        22.5085894972        3.2436373904        21.740440507738
  C        23.2164283624        4.3485547735        21.034209746738
  C        24.2121436257        4.0681361562        20.086970353138
  C        24.8347777148        5.1073086933        19.400590896838
  C        24.4768356899        6.4485516496        19.641552596838
  C        23.5078461910        6.7205645717        20.624440894638
  C        22.8809340481        5.6832676262        21.309496076538
  C        25.0830765586        7.5551442945        18.867166879038
  C        25.0649159945        7.5476296806        17.445589757338
  C        24.3690361646        6.5474162998        16.694950336438
  C        38.3037825454       31.9278559103        21.835801868738
  C        37.5772057335       30.8386198381        21.120765547038
  C        36.6177626250       31.1437333943        20.142984237638
  C        36.0007104799       30.1250523874        19.421653663738
  C        36.3275786904       28.7748104115        19.655624152738
  C        37.2587993133       28.4771680607        20.668696118538
  C        37.8798726994       29.4945748228        21.389055965238
  C        35.7217882238       27.6838844361        18.857839534638
  C        35.7467841545       27.7001916322        17.436036091138
  C        36.4479328224       28.7041096577        16.696515100238
  C        25.6919809683        8.6179050023        16.729843506738
  C        25.6754994979        8.6300724752        19.541949152338
  C        38.3261127561       31.9625510792       10.1530884582
  C        37.5973442075       30.8899687342       10.8882706733
  C        36.6642434227       31.1999600228       11.8894325000
  C        36.0481939708       30.1821499140       12.6146316048
  C        36.3514504640       28.8293201757       12.3624261105
  C        37.2609180192       28.5292468071       11.3299280364
  C        37.8785998139       29.5435771350       10.6053158725
  C        35.7425075768       27.7312592888       13.1471373430
  C        35.7569743121       27.7247863494       14.5690799938
  C        36.4526509835       28.7161463481       15.3300340618
  C        46.1356592762       26.6207974128       15.2814618974
  C        46.0878990787       26.5802585472       12.4735618121
  C        22.4633725132        3.2559207938       10.2555491363
  C        23.1635118130        4.3649732760       10.9727813389
  C        24.1726846150        4.0792599059       11.9061332654
  C        24.8056895340        5.1097580688       12.5971808879
  C        24.4491716777        6.4554997915       12.3783758407
  C        23.4638485185        6.7346161592       11.4125569687
  C        22.8266429515        5.7044147872       10.7214244516
  C        25.0796166999        7.5530715228       13.1543659805
  C        25.0641510511        7.5459132547       14.5769763731
  C        24.3668220857        6.5477641738       15.3283820869
  C        26.6342664824       17.8294228586        21.733826990238
  C        25.3219784012       17.8836376209        21.021337519538
  C        25.0595657693       18.8830757701        20.071026855138
  C        23.8405733525       18.9117137534        19.396822305038
  C        22.8480817323       17.9425291235        19.648347601838
  C        23.1055476805       16.9676909991        20.630772230838
  C        24.3254702017       16.9354361079        21.304994187438
  C        21.5738845230       17.9321862344        18.886082044138
  C        21.5754669317       17.9132364902        17.463427384738
  C        22.7815019098       17.7861614198        16.704352421438
  C        34.4421115730       17.1913345220        21.904317169738
  C        35.7370446245       17.1347158256        21.165329660538
  C        35.9419919259       16.1615303781        20.174833955238
  C        37.1223150846       16.1459489086        19.437236084938
  C        38.1300645049       17.1019912868        19.670370667738
  C        37.9288715275       18.0543699862        20.687621359538
  C        36.7453702313       18.0759282563        21.422039106138
  C        39.3821024529       17.1090303605        18.879970451038
  C        39.3723832436       17.1152245127        17.458142128438
  C        38.1622400562       17.2353684659        16.705343869338
  C        20.3299467922       17.9360593562        16.753363067138
  C        20.3485705731       17.9351628304        19.567230369338
  C        34.4377722761       17.2420989475       10.1872167935
  C        35.7352749509       17.1396638711       10.9156869853
  C        35.9265663953       16.1756200454       11.9169776035
  C        37.1180027079       16.1411059034       12.6379942219
  C        38.1454378812       17.0700368230       12.3797654789
  C        37.9575907624       18.0079386699       11.3467383338
  C        36.7668910443       18.0471888620       10.6280138518
  C        39.3965313932       17.0837127560       13.1696387249
  C        39.3796311082       17.1032085427       14.5911995087
  C        38.1662438040       17.2291032072       15.3388533750
  C        35.1298793661       26.6447428996       15.2743884121
  C        35.1506546616       26.6608365970       12.4651660687
  C        26.5781153303       17.8288873500       10.3227555473
  C        25.2645105742       17.8724075284       11.0331518308
  C        25.0043594590       18.8736109185       11.9811317549
  C        23.7856447945       18.9014790741       12.6538279102
  C        22.7977978258       17.9280191707       12.4026861677
  C        23.0535061219       16.9509432029       11.4235631374
  C        24.2726683823       16.9211309794       10.7489710159
  C        21.5324181302       17.9121810962       13.1732633689
  C        21.5539021720       17.9014910551       14.5948247830
  C        22.7708032233       17.7806656499       15.3382397800
  C        14.0474841142       17.8300650580       10.2877816473
  C        15.3532419923       17.8902012268       11.0106196185
  C        15.6102705521       18.8960556407       11.9553706262
  C        16.8200356530       18.9196924745       12.6468554433
  C        17.8072631389       17.9404108524       12.4157356574
  C        17.5552301969       16.9591427376       11.4382832130
  C        16.3449329442       16.9309785937       10.7483053972
  C        19.0758952046       17.9238449383       13.1857579058
  C        19.0726079983       17.9210747490       14.6083810472
  C        17.8645605756       17.8249510840       15.3684591738
  C        46.8014736904       17.2155117672       10.1562458875
  C        45.5066770060       17.1433207412       10.8948821733
  C        45.3007768802       16.1575588678       11.8727412852
  C        44.1161391612       16.1279502726       12.6041359764
  C        43.1059695015       17.0840948304       12.3810625723
  C        43.3080222904       18.0480193239       11.3745540989
  C        44.4936431967       18.0815247772       10.6438109700
  C        41.8532238949       17.0881368196       13.1726544275
  C        41.8642545363       17.0934276303       14.5950619626
  C        43.0759082052       17.1921020447       15.3489947328
  C        20.3184341720       17.9292122885       15.3183685183
  C        20.3010485509       17.9032316369       12.5051258355
  C        46.7861955628       17.2324218081        21.876166666238
  C        45.4861611168       17.1278301794        21.154660264538
  C        45.2710730310       16.1280362330        20.193803400838
  C        44.0849661431       16.0988045709        19.464485278338
  C        43.0843264542       17.0665480974        19.678662328938
  C        43.2909833391       18.0379186701        20.676067416238
  C        44.4779664346       18.0731987169        21.400921562738
  C        41.8364014175       17.0829689588        18.884161283538
  C        41.8559931788       17.0892831361        17.462840417438
  C        43.0720909461       17.1874131852        16.715897181638
  C        46.1532706586       26.6372171584        16.716015493738
  C        46.1622454588       26.6559891603        19.525665665538
  C        14.0449546192       17.8315582638        21.697937260538
  C        15.3650802527       17.9054594245        21.005693072838
  C        15.6384582674       18.9226589631        20.079026143738
  C        16.8668450540       18.9604587145        19.423032164538
  C        17.8493496546       17.9799155073        19.667554299738
  C        17.5825306398       16.9910840629        20.631985894838
  C        16.3563113118       16.9529381683        21.291689833138
  C        19.1168204431       17.9562912674        18.898855236538
  C        19.0940980553       17.9367141362        17.477133277738
  C        17.8750013083       17.8318338188        16.734619295538
  C        28.7942161688       14.1197750825       10.3977783010
  C        28.1935060542       12.9440040968       11.0899148278
  C        28.9200353060       12.2061058839       12.0359602637
  C        28.3279423284       11.1222480910       12.6802478504
  C        26.9954726968       10.7537380926       12.4044237410
  C        26.2909224620       11.4737182815       11.4228055002
  C        26.8806855315       12.5560749398       10.7757902220
  C        26.3296455359        9.6675719673       13.1601569955
  C        26.3096544171        9.6923222191       14.5810745827
  C        26.8085341973       10.8048650141       15.3303291507
  C        32.1794427531       21.2442522008       10.1082713199
  C        32.7646965617       22.4083823213       10.8365004657
  C        32.0125824181       23.0797754794       11.8128114169
  C        32.5793949418       24.1173508978       12.5476240960
  C        33.9127866927       24.5126914423       12.3252959754
  C        34.6473309509       23.8587392125       11.3180734058
  C        34.0840858431       22.8149018010       10.5868948078
  C        34.5389070883       25.5899192410       13.1259570097
  C        34.5365194285       25.5607790082       14.5475539343
  C        34.0344474300       24.4436079494       15.2866076881
  C        25.6961323742        8.6136033674       15.2954355224
  C        25.6976885231        8.6164304180       12.4823896698
  C        32.1175251473       21.1979356408        21.830442615338
  C        32.7045028178       22.3563288563        21.094037040138
  C        31.9749088359       23.0036416171        20.084806271638
  C        32.5494565406       24.0446985985        19.359444293338
  C        33.8692544613       24.4644306563        19.619724889338
  C        34.5805012472       23.8294416552        20.656078993538
  C        34.0091051956       22.7866495160        21.380940327338
  C        34.5073992338       25.5481143125        18.837079926738
  C        34.5213312483       25.5390550314        17.414796147238
  C        34.0277842426       24.4331748746        16.653227703738
  C        40.6157883326       17.0851259182        16.744044146138
  C        40.6082363683       17.1098234459        19.554343911638
  C        28.7376879483       14.0697578660        21.778473177238
  C        28.1214869128       12.9205559277        21.051652492338
  C        28.8582566804       12.2074496997        20.093237727038
  C        28.2729450747       11.1507378168        19.400865665438
  C        26.9349757334       10.7800388715        19.642192438238
  C        26.2156232030       11.4780046164        20.630206458138
  C        26.7995070185       12.5356491067        21.324907978838
  C        26.2916761369        9.6918212744        18.868159950138
  C        26.2911803970        9.7050496670        17.446530671938
  C        26.7981852641       10.8118886014        16.695949449038
  C        18.1353287701        3.1809328574       10.3171774254
  C        17.4059645080        4.2781634332       11.0157485899
  C        16.3902793797        3.9997236111       11.9432788308
  C        15.7425526450        5.0396485918       12.6068529942
  C        16.0942106038        6.3834062467       12.3670128187
  C        17.0833649362        6.6530131904       11.4030334118
  C        17.7324554863        5.6157211830       10.7378981834
  C        15.4699446256        7.4911079745       13.1300798429
  C        15.4853512858        7.4904775833       14.5517905397
  C        16.1869146104        6.4968724976       15.3049640682
  C        42.9459744152       31.8594785656       10.0726902567
  C        43.6464423467       30.7718361636       10.8165730734
  C        44.5918985584       31.0931988664       11.8027138855
  C        45.1975847360       30.0876590936       12.5504083399
  C        44.8711995955       28.7345807316       12.3355728562
  C        43.9452685669       28.4202390950       11.3224546376
  C        43.3364668771       29.4253503377       10.5743599461
  C        45.4886255393       27.6553014115       13.1389086342
  C        45.4929259846       27.6809470953       14.5605957038
  C        44.8057565644       28.6889854462       15.3071486984
  C        14.8563511319        8.5629413569       15.2641685681
  C        14.8745403197        8.5628216838       12.4515116694
  C        42.9464564809       31.9615575795        21.798726873038
  C        43.6916421419       30.8854264233        21.085251746438
  C        44.6562286192       31.1913224899        20.112930632538
  C        45.2776957614       30.1717175615        19.395194202038
  C        44.9539272678       28.8213988503        19.632855797838
  C        44.0204496083       28.5237526556        20.643645619438
  C        43.3922478937       29.5405239550        21.355863267238
  C        45.5629212768       27.7239771785        18.847620180438
  C        45.5333682812       27.7174073968        17.426315897738
  C        44.8269368528       28.7075412787        16.673335048138
  C        35.1237073422       26.6328685152        16.709397262138
  C        35.1186944904       26.6076170944        19.518956112138
  C        18.1482685879        3.2468281948        21.696553913038
  C        17.4296711286        4.3436883617        20.987290597138
  C        16.4145562334        4.0524926976        20.063590123638
  C        15.7663818649        5.0831732153        19.388137811538
  C        16.1211157800        6.4283840435        19.610886023938
  C        17.1125011177        6.7117004598        20.568153420438
  C        17.7600159981        5.6827404791        21.247998636638
  C        15.4907166364        7.5240924944        18.838380142838
  C        15.4965072848        7.5074709662        17.417250123638
  C        16.1932667479        6.5057627597        16.670564751838
  H        10.6725736940       12.4658616110        19.894319619938
  H        11.6947999132       10.5510622049        18.652423440038
  H        15.3917866754       11.1685878681        20.762127694438
  H        14.3512616630       13.0713500288        22.007373110138
  H        13.3763364057       11.6312140834        17.191060105438
  H        50.3227356910       22.7486196407        19.977006765238
  H        49.3195896130       24.6229711922        18.670854822738
  H        45.6418829013       24.1609427382        20.853310641838
  H        46.6628138840       22.2901345646        22.161732428138
  H        47.6299290926       23.5759126392        17.235956746938
  H        14.8722509760        8.5883178711        20.598292033338
  H        50.2870963404       22.7026625463       12.0602649009
  H        49.2691804871       24.5755894473       13.3602936548
  H        45.6104532886       24.1091753155       11.1460926055
  H        46.6525282455       22.2538143077        9.8318512336
  H        47.6079392091       23.5519279222       14.7968223530
  H        40.6277860343       17.0573367750       11.4119063773
  H        48.6871256275       14.0949524906        23.789773675638
  H        10.6811760855       12.4667182523       12.0932826497
  H        11.6893046838       10.5247095055       13.2969764717
  H        15.3932190505       11.1585826422       11.2054255735
  H        14.3648471419       13.0871151453        9.9901954781
  H        13.3757740770       11.6220940212       14.7530611423
  H        47.9301049140       14.2185016928        9.7108032448
  H        47.7800231129       14.3737222347        22.485167031738
  H        49.0825454743       18.5516565411       10.8671650694
  H        10.4160455003       14.1343858418        7.9988568985
  H        24.4762046482        3.0296927454        19.899744786138
  H        25.6082944989        4.8902476812        18.667137738238
  H        23.2240454104        7.7533101120        20.815980917138
  H        22.1112172159        5.8831567562        22.050909647838
  H        23.8054967801        5.7897816150        17.231689042938
  H        36.3794422706       32.1871980177        19.950768652538
  H        35.2557478948       30.3666501633        18.666688363038
  H        37.5199951317       27.4378255227        20.856945353238
  H        38.6234259508       29.2711517401        22.150487718638
  H        37.0142647513       29.4542464606        17.240820760238
  H        25.7039877063        8.6125449775        20.629940603038
  H        36.4434534243       32.2444972387       12.0972302952
  H        35.3198721406       30.4276173996       13.3843953898
  H        37.5061701251       27.4885951833       11.1283687218
  H        38.6037059167       29.3172252237        9.8274173093
  H        37.0234332103       29.4751654346       14.8029074246
  H        46.1092668518       26.5875401929       11.3855233812
  H        44.6682280631       35.1161489393        23.803730335538
  H        24.4513374588        3.0410473747       12.0719779541
  H        25.5908371290        4.8810410469       13.3147157030
  H        23.1769213100        7.7689883219       11.2343496285
  H        22.0498605445        5.9172371486        9.9905765216
  H        23.8010827919        5.7908744337       14.7929081509
  H        44.9535028625       34.3899998624        9.6949012211
  H        44.9016184041       34.2067696884        22.480380674738
  H        40.6651906234       33.2085141779       10.8527097047
  H        23.1503973407        1.9576934785        8.0041661419
  H        25.8210589459       19.6348646770        19.876603273438
  H        23.6425224945       19.6931229659        18.666229236338
  H        22.3507729936       16.2109704638        20.835045952538
  H        24.5343133599       16.1694286846        22.048165970438
  H        23.7212091504       17.6615937192        17.234467400938
  H        35.1581874444       15.4303130569        19.991819623638
  H        37.2793087417       15.3849281283        18.675944661338
  H        38.6989011659       18.8006931881        20.871891505038
  H        36.5727947750       18.8271087832        22.189352565138
  H        37.2252664836       17.3648866979        17.239590029338
  H        20.3541621009       17.9726460324        20.655192211138
  H        35.1258440039       15.4710840792       12.1308921834
  H        37.2640892922       15.3889774962       13.4101239699
  H        38.7429468997       18.7325090542       11.1417497450
  H        36.6025250404       18.7894178473        9.8505990582
  H        37.2316151042       17.3533023204       14.7999434767
  H        35.1204993666       26.6872847544       11.3775380395
  H        28.5070887147       21.0803038739        23.864574169138
  H        25.7699283759       19.6226773655       12.1710535177
  H        23.5833346068       19.6830032406       13.3830932386
  H        22.2996564148       16.1921190248       11.2238436102
  H        24.4850917432       16.1557815708       10.0063180266
  H        23.7022652863       17.6520996299       14.7951608807
  H        29.0118422222       21.7205025410        9.7302060129
  H        29.1702978256       21.7352010522        22.538135151738
  H        32.0657670089       18.6135283569       10.9205957876
  H        27.3978274176       19.0662119092        8.0344410927
  H        14.8513041620       19.6547471624       12.1327917131
  H        17.0152753444       19.7058167768       13.3730879182
  H        18.3069151225       16.1951391673       11.2506052003
  H        16.1389886802       16.1600063511       10.0095944085
  H        16.9222648492       17.7124209987       14.8401772673
  H        46.0867886490       15.4282097222       12.0539147312
  H        43.9594547395       15.3564191628       13.3548508883
  H        42.5367238682       18.7944959114       11.1963487885
  H        44.6646258103       18.8411224523        9.8844917380
  H        44.0156683444       17.3032932820       14.8156749913
  H        20.2963373276       17.9333346951       11.4169861022
  H        46.0486788153       15.3875323487        20.020911778438
  H        43.9204436847       15.3218074723        18.721104454438
  H        42.5236702538       18.7900250674        20.847350527238
  H        44.6580550523       18.8413079606        22.149033242238
  H        44.0090605413       17.2941602108        17.254911254238
  H        46.1989778674       26.6824671461        20.613118171038
  H        52.7411449188       21.0626239526        8.1947072069
  H        14.8785947451       19.6777236294        19.889950943238
  H        17.0781264874       19.7526672293        18.708003123538
  H        18.3323918825       16.2274955301        20.828293577238
  H        16.1351714888       16.1769280076        22.020462840338
  H        16.9405413865       17.7247360817        17.277194976638
  H        52.3224689251       21.6733054621        22.284098141538
  H        52.0133108014       21.7021606888        9.4956566588
  H        49.0676112168       18.6077732483        21.193881250538
  H        13.2474572152       19.0163933918        23.966903819438
  H        29.9463362710       12.4937742183       12.2528069699
  H        28.8934700872       10.5484143202       13.4112314907
  H        25.2611392694       11.1999628021       11.2026402264
  H        26.3344397665       13.1317269247       10.0326922029
  H        27.1750433079       11.6741402066       14.7928283432
  H        30.9874788752       22.7637114698       11.9908380593
  H        31.9912303180       24.6366755246       13.3011270520
  H        35.6794306887       24.1543765457       11.1411216836
  H        34.6572820702       22.2846155115        9.8298711423
  H        33.6793092431       23.5742058701       14.7407178619
  H        25.7317625326        8.5987467088       11.3944501612
  H        30.9613862755       22.6687433532        19.875428154638
  H        31.9755348835       24.5495307166        18.585438779738
  H        35.6021721701       24.1412079092        20.863193265038
  H        34.5639819288       22.2756209520        22.164334107638
  H        33.6686218498       23.5547670264        17.181509808638
  H        40.6059182445       17.0777890034        20.642209356038
  H        32.5158948410       14.1498165302        8.2470158902
  H        29.8921305099       12.4916147426        19.911089473938
  H        28.8511446572       10.5941311553        18.666481286938
  H        25.1806779528       11.2032327129        20.823449839338
  H        26.2411566057       13.0908404591        22.074971828138
  H        27.1553449485       11.6865546665        17.231589519238
  H        33.2955811636       14.1899602133        22.429851594438
  H        33.4036207211       14.3890509056        9.6125927213
  H        32.1168738999       18.5040927072        21.091399794438
  H        30.2343241698       14.1886984882        8.0810813197
  H        16.1184365077        2.9631975162       12.1298433748
  H        14.9531835669        4.8202085307       13.3225813475
  H        17.3655347702        7.6859232248       11.2097154922
  H        18.5143340231        5.8184138559       10.0098844689
  H        16.7534479369        5.7395280110       14.7714546346
  H        44.8282350529       32.1402758116       11.9768555963
  H        45.9374468747       30.3414221367       13.3063532265
  H        43.6825254763       27.3781732320       11.1523939985
  H        42.5998514229       29.1899612205        9.8097146455
  H        44.2303631373       29.4367225060       14.7688402412
  H        14.8506936907        8.5460204708       11.3632955067
  H        44.8997769036       32.2339945184        19.921449337838
  H        46.0246152671       30.4129113378        18.641960075638
  H        43.7634941022       27.4840262830        20.835235152438
  H        42.6457387632       29.3177165302        22.114292436538
  H        44.2683877301       29.4704007892        17.207912828438
  H        35.0785324099       26.6201871508        20.606542347338
  H        36.6050244846       35.1339661642        8.1807763774
  H        16.1433535332        3.0129381397        19.893914980338
  H        14.9740795251        4.8563755866        18.678020926638
  H        17.3960916333        7.7471469342        20.745024539138
  H        18.5428278437        5.8931242404        21.972859754638
  H        16.7646764724        5.7554973872        17.208982033338
  H        36.2782628632       34.4824063698        22.262951451038
  H        36.3807000203       34.2093507511        9.4998690353
  H        40.5804131531       33.2024575697        21.143112556338
  H        17.4708026788        1.9470216781        23.963931921738
  H        29.2554724874       19.5200541760       12.4825453338
  H        28.9514706300       18.9576810245        19.609779050038
  H        30.5042067585       15.6747613283        19.824669952338
  H        30.8927452014       15.5282094775       12.3566515735
  H        27.9230665438       17.8648695033       14.4579288046
  H        29.0901489855       15.7076983907       14.6364648546
  H        31.2624547849       19.5839739385        17.364554872038
  H        32.2429520757       16.1898090204        17.806979172838
  H        33.2475089371       17.3238394336       14.5122774085
  H        18.8544085888        0.8691628054       12.3355073583
  H        40.5279781069       35.2291556647        19.941905743738
  H        42.3241161929       34.4192413599        19.580152014538
  H        22.0880443905        0.6920635239       12.3516332138
  H        11.5968619011       18.7127208777       12.3824973348
  H        52.2649730190       18.4311588745        19.667422798038
  H        49.2546458493       16.4771467414        19.574697010638
  H        10.1495573582       15.7982967218       12.2932716116
  H        50.8500512420       17.6925751808        19.943999890738
  H        10.0457589642       17.3945759379       12.0520493291
  H        20.2158849474        0.0023691263       12.0418925854
  H        39.1834922048       36.1242860529        19.676273555438
 Ni        30.8194482512       17.7924632998        18.819073348238
 Ni        30.9924069810       16.6138719782       15.742162473338
 Ni        29.7553817972       18.5570184468       15.830228497638