     569
 i =       35, E =     -4729.5480795638
  C        11.8587810802       14.0535369667        21.731354666238
  C        12.4563040278       12.8906141610        21.012992569138
  C        11.7045877709       12.1716523920        20.071387279938
  C        12.2809556524       11.1094455851        19.379028251338
  C        13.6215418603       10.7396988549        19.606728824338
  C        14.3547624033       11.4433490514        20.580088842138
  C        13.7818813260       12.5083319708        21.271592470538
  C        14.2610472509        9.6490004677        18.833359115738
  C        14.2564068487        9.6569130629        17.411662050738
  C        13.7433293092       10.7590803110        16.657760172238
  C        49.1267521703       21.2332992640        21.869504542238
  C        48.5499608083       22.4012011262        21.142419610438
  C        49.3000225459       23.0685598355        20.161468028938
  C        48.7330814142       24.1076636025        19.428231143238
  C        47.4025175350       24.5092645671        19.656795631838
  C        46.6715222305       23.8603555898        20.670259196238
  C        47.2339876907       22.8154819053        21.399646361038
  C        46.7722734262       25.5869395355        18.859497104038
  C        46.7613699249       25.5573877726        17.437734854338
  C        47.2614276554       24.4423630268        16.694228263938
  C        14.8602610401        8.5705159504        16.698416786638
  C        14.8916895223        8.5969880506        19.510023297238
  C        49.1132709058       21.2035095883       10.1453468130
  C        48.5279330329       22.3649162508       10.8724268714
  C        49.2671275473       23.0255952389       11.8653914857
  C        48.6907977258       24.0601654416       12.5968276330
  C        47.3603932308       24.4569566308       12.3585492042
  C        46.6400253516       23.8121290609       11.3349376982
  C        47.2135977074       22.7762262380       10.6031711793
  C        46.7218818147       25.5318739363       13.1495895485
  C        46.7336523679       25.5282503839       14.5712953525
  C        47.2491833684       24.4290814141       15.3276780438
  C        40.6275130021       17.1179059217       15.3219853817
  C        40.6399216086       17.1584798514       12.5117572710
  C        11.8829631214       14.0865337897       10.2854935638
  C        12.4722737419       12.9107056030       10.9897523258
  C        11.7147236484       12.1774658688       11.9157945632
  C        12.2812873951       11.0949894251       12.5842083654
  C        13.6201214834       10.7212953398       12.3524287370
  C        14.3581361450       11.4369151752       11.3917041327
  C        13.7927363998       12.5181130581       10.7190294069
  C        14.2537080566        9.6245059372       13.1228156637
  C        14.2525273632        9.6445229766       14.5446552213
  C        13.7427732314       10.7535364437       15.2917146102
  C        22.5116838966        3.2430937994        21.743148428438
  C        23.2284459104        4.3462638872        21.042767474438
  C        24.2234912202        4.0611398057        20.096200117138
  C        24.8543563446        5.0974073915        19.413214419638
  C        24.5056473997        6.4404794974        19.657238681538
  C        23.5382984387        6.7172164853        20.640341504938
  C        22.9026546506        5.6825333692        21.321675308038
  C        25.1178514251        7.5428329997        18.881689793238
  C        25.0929208147        7.5350734931        17.460450287038
  C        24.3807949939        6.5425652012        16.714673529138
  C        38.2974078158       31.9279716404        21.841258885938
  C        37.5547485239       30.8404256897        21.139538804938
  C        36.5886127943       31.1492008563        20.169213877538
  C        35.9565622915       30.1328980282        19.457704326538
  C        36.2749245566       28.7807099399        19.692387721038
  C        37.2103213151       28.4793928830        20.700631231638
  C        37.8462432164       29.4946513449        21.411845858038
  C        35.6641911675       27.6933933397        18.892074732138
  C        35.7052047984       27.7087398457        17.470199798638
  C        36.4152378663       28.7116607502        16.737519089738
  C        25.7267244645        8.5988592932        16.741033723938
  C        25.7178249551        8.6157482190        19.552549042138
  C        38.3301232848       31.9612192872       10.1596711622
  C        37.6124702087       30.8890819732       10.9078704499
  C        36.6783562757       31.1994771004       11.9083595623
  C        36.0674828042       30.1830336419       12.6405726977
  C        36.3760280920       28.8294781251       12.3970526632
  C        37.2907857732       28.5290688262       11.3688761943
  C        37.9032054221       29.5419444515       10.6374175563
  C        35.7617084566       27.7312938998       13.1789562170
  C        35.7547392211       27.7283020283       14.6015549014
  C        36.4373230503       28.7221674462       15.3710361185
  C        46.1355259668       26.6208149314       15.2814405882
  C        46.0877847990       26.5801599418       12.4735473460
  C        22.4597187917        3.2554569117       10.2573209438
  C        23.1523644850        4.3646497949       10.9808495772
  C        24.1558742810        4.0787113009       11.9199770117
  C        24.7832178404        5.1089662037       12.6159662331
  C        24.4270049723        6.4545375299       12.3953027316
  C        23.4460394257        6.7338932650       11.4250989378
  C        22.8141034165        5.7036660116       10.7295089263
  C        25.0612760903        7.5502848345       13.1692569199
  C        25.0642468871        7.5382690630       14.5918616384
  C        24.3653252680        6.5449046442       15.3482589290
  C        26.6077173569       17.8572685232        21.773847316738
  C        25.3019845620       17.9020203416        21.051093137438
  C        25.0386750185       18.9018879397        20.101226071838
  C        23.8276681340       18.9177030095        19.412437213238
  C        22.8425668659       17.9387246254        19.653437245838
  C        23.1009642624       16.9624216024        20.634218761938
  C        24.3147673717       16.9397467349        21.319302576938
  C        21.5711252872       17.9231422226        18.887012003138
  C        21.5736681184       17.9043680755        17.464481255638
  C        22.7803376907       17.7823688401        16.705547050538
  C        34.4377675785       17.1910478409        21.911794237738
  C        35.7332238488       17.1399506046        21.171662706338
  C        35.9374687170       16.1691667186        20.178559264138
  C        37.1178146553       16.1549593077        19.440893342938
  C        38.1260723641       17.1095971991        19.677173465438
  C        37.9250097139       18.0601063942        20.696023928638
  C        36.7413670534       18.0803686899        21.430488210138
  C        39.3793334943       17.1171852049        18.888855904138
  C        39.3733185110       17.1315947643        17.467187804938
  C        38.1650685987       17.2553295800        16.711993623838
  C        20.3279334934       17.9232908736        16.754562292238
  C        20.3459922986       17.9248623513        19.568113380438
  C        34.4214046340       17.2269694884       10.2522304118
  C        35.7313715312       17.1553149977       10.9602053151
  C        35.9698598308       16.1646029827       11.9251235135
  C        37.1683228316       16.1478935885       12.6321213725
  C        38.1578486061       17.1214923507       12.3944478040
  C        37.9277387156       18.0850826060       11.3950404517
  C        36.7278588985       18.1057265247       10.6889895334
  C        39.4109520155       17.1424156902       13.1802135666
  C        39.3894066712       17.1461415932       14.6013706895
  C        38.1726980221       17.2608767325       15.3454570397
  C        35.1189880513       26.6490826890       15.3013088323
  C        35.1806799288       26.6578009466       12.4915677563
  C        26.5723876140       17.8293600447       10.3223864426
  C        25.2560640436       17.8731191780       11.0271873206
  C        24.9904499076       18.8783646769       11.9691289839
  C        23.7737136507       18.9017422647       12.6450578432
  C        22.7923538467       17.9202569881       12.4012163111
  C        23.0510861705       16.9409471404       11.4252184852
  C        24.2691240368       16.9152747343       10.7484714014
  C        21.5288357556       17.9005448576       13.1744442870
  C        21.5516378197       17.8905176255       14.5960621553
  C        22.7694365194       17.7753459472       15.3391457640
  C        14.0467330075       17.8290880870       10.2882755160
  C        15.3515226717       17.8862381198       11.0122513769
  C        15.6088039173       18.8886784192       11.9604672979
  C        16.8181282650       18.9085035683       12.6526831085
  C        17.8042122609       17.9287626489       12.4187077641
  C        17.5519695760       16.9511286276       11.4377691199
  C        16.3420963432       16.9265871432       10.7472606605
  C        19.0727453064       17.9097261844       13.1881105866
  C        19.0701074169       17.9051469993       14.6104717741
  C        17.8622598931       17.8058354643       15.3703605889
  C        46.8038142425       17.2191111064       10.1589539701
  C        45.5129131032       17.1581689210       10.9042775325
  C        45.3042586024       16.1792986768       11.8882286835
  C        44.1220766171       16.1622942974       12.6238736207
  C        43.1182467580       17.1246550765       12.3984970894
  C        43.3240565495       18.0829824854       11.3876140717
  C        44.5067602971       18.1035381062       10.6525551133
  C        41.8655187013       17.1373891486       13.1884953589
  C        41.8730614523       17.1310327008       14.6107862365
  C        43.0830760546       17.2204534428       15.3686659947
  C        20.3162164805       17.9152742802       15.3198160423
  C        20.2973892552       17.8901805872       12.5068443078
  C        46.7860340263       17.2307487862        21.879428729538
  C        45.4832278631       17.1234603489        21.164292032838
  C        45.2663292627       16.1242068135        20.203571943138
  C        44.0786135103       16.0959368842        19.477118650738
  C        43.0791497035       17.0638057679        19.695102349738
  C        43.2863026137       18.0326686869        20.694580575238
  C        44.4751571031       18.0674017604        21.415943764938
  C        41.8331113331       17.0856685793        18.898774714238
  C        41.8568923660       17.1023912698        17.477972173238
  C        43.0753429048       17.2045155571        16.735266184238
  C        46.1532903465       26.6372278717        16.715985848638
  C        46.1621970758       26.6559911318        19.525623487138
  C        14.0444373287       17.8305111459        21.697891130638
  C        15.3639748431       17.9019534654        21.005443742338
  C        15.6377960431       18.9166011024        20.076241501138
  C        16.8660629035       18.9514817843        19.420194207738
  C        17.8475096962       17.9707156200        19.667752620838
  C        17.5803336331       16.9846580297        20.634751395338
  C        16.3541888442       16.9492859565        21.294361666438
  C        19.1146516852       17.9445480626        18.899537884738
  C        19.0921018061       17.9223249529        17.478147859038
  C        17.8729564360       17.8136756872        16.736382430538
  C        28.8041764186       14.0937338158       10.3930412738
  C        28.1919014327       12.9205088860       11.0840766504
  C        28.9500181937       12.1028014700       11.9371404352
  C        28.3490348175       11.0302811958       12.5943102512
  C        26.9820505425       10.7444421205       12.4096152531
  C        26.2432161854       11.5408713805       11.5172101456
  C        26.8384631452       12.6183993993       10.8661181240
  C        26.3214598406        9.6561542758       13.1683221331
  C        26.3333227648        9.6700610021       14.5883622875
  C        26.8692915314       10.7679780631       15.3332460627
  C        32.1847263621       21.2393676624       10.1386076158
  C        32.7810685934       22.4044150433       10.8582444423
  C        32.0326801027       23.0807369212       11.8344311010
  C        32.6017952915       24.1192841120       12.5650159315
  C        33.9359369261       24.5117742832       12.3416705032
  C        34.6667579615       23.8548840025       11.3332782441
  C        34.0999148752       22.8104526719       10.6042809166
  C        34.5603092812       25.5878158638       13.1462242962
  C        34.5386144192       25.5620228897       14.5683900619
  C        34.0289032711       24.4455647252       15.3034307994
  C        25.7160287859        8.5966308656       15.3068243246
  C        25.6712413014        8.6161763878       12.4931530911
  C        32.0904393774       21.1715723188        21.828527188338
  C        32.6528617612       22.3449297848        21.096922822138
  C        31.9260687845       22.9792878817        20.077725403438
  C        32.4931842004       24.0304639467        19.359341471138
  C        33.8023001956       24.4735609921        19.635881654038
  C        34.5083335918       23.8527273860        20.684661930838
  C        33.9452491534       22.8013751484        21.402119825338
  C        34.4427835998       25.5606878213        18.858642192238
  C        34.4779789605       25.5484868748        17.436161378638
  C        33.9994447471       24.4393849736        16.669755919638
  C        40.6187416541       17.1064694650        16.756368285338
  C        40.6036167527       17.1111810505        19.566123333538
  C        28.7388697695       14.0605106925        21.808390318238
  C        28.1374480094       12.9089671670        21.073747911338
  C        28.8909950034       12.1920986226        20.131585087038
  C        28.3176609723       11.1332124785        19.431878276838
  C        26.9756583338       10.7642797420        19.651037679238
  C        26.2387104885       11.4671204028        20.622544968338
  C        26.8102352108       12.5271447713        21.323560226838
  C        26.3404896954        9.6718845707        18.875561517238
  C        26.3429959762        9.6797356101        17.453756025838
  C        26.8701855139       10.7748844071        16.699209272538
  C        18.1352917656        3.1808088647       10.3171128326
  C        17.4058855721        4.2780531353       11.0156720882
  C        16.3904667875        3.9996403351       11.9434988495
  C        15.7426820434        5.0395913353       12.6069937689
  C        16.0942457923        6.3833574217       12.3670379604
  C        17.0832332561        6.6529222808       11.4028676871
  C        17.7323513520        5.6156096293       10.7378022205
  C        15.4699875069        7.4910671890       13.1301084523
  C        15.4853420080        7.4904166128       14.5518260065
  C        16.1868302963        6.4967678510       15.3050191233
  C        42.9457273190       31.8594013359       10.0727868443
  C        43.6460290288       30.7717464057       10.8167632382
  C        44.5915763580       31.0930719125       11.8028208341
  C        45.1972499007       30.0875330928       12.5505031406
  C        44.8708026114       28.7344695097       12.3356611280
  C        43.9449482827       28.4201278197       11.3224751366
  C        43.3361466389       29.4252637065       10.5744113051
  C        45.4884746105       27.6552127028       13.1388402494
  C        45.4926790128       27.6808635009       14.5605328834
  C        44.8054742295       28.6888297481       15.3071561988
  C        14.8564836986        8.5629747610       15.2641919203
  C        14.8747427796        8.5628738722       12.4515244429
  C        42.9463709083       31.9614282979        21.798748773138
  C        43.6915197663       30.8853343066        21.085239143138
  C        44.6563175221       31.1912229746        20.113124861538
  C        45.2777998458       30.1716341366        19.395383862738
  C        44.9537728408       28.8213352668        19.632814446538
  C        44.0200066338       28.5236751190        20.643328395138
  C        43.3917679853       29.5404494464        21.355514573538
  C        45.5628677888       27.7239627429        18.847567338838
  C        45.5332177799       27.7173216019        17.426273220238
  C        44.8267657463       28.7074710499        16.673340506038
  C        35.0907433883       26.6409557856        16.736657351238
  C        35.0483683848       26.6204322749        19.546835901938
  C        18.1484576850        3.2468666852        21.696418949638
  C        17.4297726532        4.3437190240        20.987223221338
  C        16.4147199279        4.0524144373        20.063492623338
  C        15.7663961122        5.0830324108        19.388088823938
  C        16.1208843572        6.4282943332        19.610945662238
  C        17.1120421612        6.7116997928        20.568432247038
  C        17.7597126599        5.6828057563        21.248224684938
  C        15.4904650967        7.5240033505        18.838462966438
  C        15.4963907363        7.5073734217        17.417327309838
  C        16.1930626243        6.5056126992        16.670624268438
  H        10.6724327662       12.4657390182        19.894445565638
  H        11.6946475904       10.5509000572        18.652555017538
  H        15.3918279698       11.1688332165        20.761728904438
  H        14.3513735601       13.0716620322        22.006923842038
  H        13.3764008140       11.6312371910        17.191076010738
  H        50.3227509643       22.7485639925        19.976767892238
  H        49.3196008280       24.6229733915        18.670711765738
  H        45.6419966516       24.1610630504        20.853358411238
  H        46.6629484188       22.2902435212        22.161720805538
  H        47.6300293515       23.5760080151        17.235900501738
  H        14.8719592828        8.5882343753        20.598327869838
  H        50.2871612843       22.7027314937       12.0603441562
  H        49.2691724299       24.5755898247       13.3603656563
  H        45.6106454669       24.1094214678       11.1458130187
  H        46.6528078059       22.2541472224        9.8315295551
  H        47.6080426329       23.5519925249       14.7967875478
  H        40.6433313549       17.1310356118       11.4237348256
  H        48.6871444764       14.0949799846        23.789768322738
  H        10.6812317469       12.4665055893       12.0931312056
  H        11.6894793320       10.5245406259       13.2968496790
  H        15.3936021639       11.1591055154       11.2058558531
  H        14.3651308346       13.0876078077        9.9906397862
  H        13.3760079521       11.6221605590       14.7530488436
  H        47.9300969855       14.2186268330        9.7109102526
  H        47.7801577948       14.3741039867        22.485170107538
  H        49.0835927509       18.5524590376       10.8674480530
  H        10.4161370624       14.1343433991        7.9988338960
  H        24.4798936213        3.0212439922        19.906474235538
  H        25.6263708630        4.8766858890        18.679260446238
  H        23.2618724032        7.7514986159        20.834405385338
  H        22.1335394420        5.8860093300        22.062778593938
  H        23.8141453724        5.7902668052        17.255604161938
  H        36.3576489709       32.1937453650        19.974005385538
  H        35.2083921791       30.3780861637        18.707044628238
  H        37.4645372235       27.4386818025        20.890935795538
  H        38.5936210997       29.2673572357        22.168443158038
  H        36.9739644400       29.4634284445        17.287272714538
  H        25.7454206639        8.6025940141        20.640609969038
  H        36.4503368252       32.2439025515       12.1088815773
  H        35.3363425299       30.4305859636       13.4069916122
  H        37.5426618496       27.4886884713       11.1741277209
  H        38.6300385602       29.3134978075        9.8616937490
  H        37.0138969281       29.4816590844       14.8507894557
  H        46.1091321674       26.5875478540       11.3855086106
  H        44.6681180299       35.1160239001        23.803710183938
  H        24.4349111468        3.0406022148       12.0857022534
  H        25.5653363463        4.8806866144       13.3368888735
  H        23.1591304006        7.7681236460       11.2460281182
  H        22.0409125424        5.9158431615        9.9946918821
  H        23.7861572121        5.7951228076       14.8171221829
  H        44.9532652754       34.3899652446        9.6949592815
  H        44.9014579129       34.2065901290        22.480461791738
  H        40.6657259957       33.2086399140       10.8529492005
  H        23.1505010788        1.9572631913        8.0053856686
  H        25.7927000389       19.6639500310        19.917838820338
  H        23.6290937190       19.6982358116        18.681073707338
  H        22.3515298650       16.1980002729        20.829140621238
  H        24.5257590477       16.1719101522        22.059987874838
  H        23.7210419273       17.6627696138        17.235378661038
  H        35.1524550138       15.4394089373        19.994213254538
  H        37.2752444263       15.3953819832        18.678215022138
  H        38.6954391060       18.8055714115        20.882074101238
  H        36.5688846031       18.8298293892        22.199492928838
  H        37.2267460449       17.3789340627        17.245159121938
  H        20.3515312565       17.9635383029        20.656019191138
  H        35.2021755359       15.4183397709       12.1152086352
  H        37.3521524762       15.3770003760       13.3772640888
  H        38.6860715832       18.8421856838       11.2063387800
  H        36.5292705690       18.8654862534        9.9366937774
  H        37.2395532597       17.3880088584       14.8043404567
  H        35.1640872056       26.6823465270       11.4035980812
  H        28.5092158947       21.0854932228        23.866414749038
  H        25.7510912271       19.6339004168       12.1524261969
  H        23.5679586128       19.6851956001       13.3712564551
  H        22.3008783466       16.1773222493       11.2301869447
  H        24.4845244442       16.1479607375       10.0087166086
  H        23.7016912105       17.6504668493       14.7962844096
  H        29.0014916202       21.7276079260        9.7435852046
  H        29.1680171059       21.7355725251        22.537536188438
  H        32.0650982310       18.6355286776       10.9065325167
  H        27.4026411373       19.0693446593        8.0776156963
  H        14.8505526413       19.6476378838       12.1398242642
  H        17.0140564265       19.6918090104       13.3817722063
  H        18.3031428333       16.1871501072       11.2479733517
  H        16.1355043868       16.1583617678       10.0059179594
  H        16.9202932243       17.6907718530       14.8420290432
  H        46.0856238550       15.4450443416       12.0698239152
  H        43.9615591343       15.3951751463       13.3782446263
  H        42.5578325992       18.8344905544       11.2087529595
  H        44.6814246564       18.8580621768        9.8891089691
  H        44.0244303303       17.3345191644       14.8387680888
  H        20.2923246280       17.9213050722       11.4187454487
  H        46.0442457041       15.3847795867        20.027576298038
  H        43.9124613875       15.3209101408        18.732064767038
  H        42.5189291924       18.7840537329        20.868625642038
  H        44.6573587873       18.8343173077        22.164728695038
  H        44.0109001837       17.3053535953        17.277808026038
  H        46.1989249324       26.6824801822        20.613074284238
  H        52.7412804149       21.0626979560        8.1947125228
  H        14.8784060794       19.6716572948        19.885272516438
  H        17.0783072880       19.7413024905        18.702816905538
  H        18.3298465660       16.2212466112        20.833037296538
  H        16.1320923866       16.1754926342        22.025151936738
  H        16.9390288151       17.7046166040        17.279501990338
  H        52.3227533329       21.6734539334        22.284034497338
  H        52.0135184961       21.7023220406        9.4956859406
  H        49.0676299707       18.6079432614        21.193964257238
  H        13.2475893996       19.0161391140        23.966927224938
  H        30.0124741055       12.3070433550       12.0584776031
  H        28.9360330482       10.3972049886       13.2565628163
  H        25.1862206801       11.3284000684       11.3702351722
  H        26.2680374213       13.2546330800       10.1936896939
  H        27.2520906203       11.6279362844       14.7917721548
  H        31.0079564444       22.7667023909       12.0168861362
  H        32.0148932281       24.6407627502       13.3179365390
  H        35.6992077472       24.1476837632       11.1534646415
  H        34.6711443874       22.2797423133        9.8460220850
  H        33.6859101151       23.5721005029       14.7562073513
  H        25.6849544386        8.6076399175       11.4047008195
  H        30.9226371298       22.6257673663        19.850699115638
  H        31.9209786441       24.5225171914        18.575915900838
  H        35.5216285070       24.1813870697        20.906061048038
  H        34.4984872925       22.3016950925        22.193679896738
  H        33.6344528400       23.5603714943        17.193202535438
  H        40.5985546507       17.0731976137        20.653771054938
  H        32.5156397141       14.1532664033        8.2300961404
  H        29.9282970042       12.4744485302        19.966859190138
  H        28.9091454552       10.5734245921        18.710570169338
  H        25.2001799518       11.1937697278        20.797574995938
  H        26.2386606228       13.0863495763        22.060580706538
  H        27.2516266568       11.6410228836        17.232172807238
  H        33.3026395181       14.2192976914        22.442272804238
  H        33.4076371017       14.3629226057        9.6142766501
  H        32.1151973682       18.4911031151        21.087532325638
  H        30.1996008751       14.1479253687        8.0824221599
  H        16.1186406741        2.9631108854       12.1301192216
  H        14.9534217226        4.8201257943       13.3228390227
  H        17.3652518471        7.6858445067       11.2094031714
  H        18.5139887587        5.8182875055       10.0095365332
  H        16.7532731092        5.7393325026       14.7715373450
  H        44.8278408463       32.1401513339       11.9770129577
  H        45.9371014427       30.3412633223       13.3064666792
  H        43.6821662676       27.3780692274       11.1524242448
  H        42.5995010381       29.1898891348        9.8097815580
  H        44.2299421736       29.4364688718       14.7688633293
  H        14.8508641865        8.5460764117       11.3633057120
  H        44.9000358442       32.2338884397        19.921839544338
  H        46.0248319596       30.4128136476        18.642258642138
  H        43.7627331752       27.4839730096        20.834629189338
  H        42.6449892512       29.3176225796        22.113678638838
  H        44.2681031570       29.4702393631        17.207935215538
  H        34.9963616618       26.6339214088        20.633925300738
  H        36.6049872648       35.1339637106        8.1806666076
  H        16.1437381983        3.0128253416        19.893663955938
  H        14.9741573558        4.8561409414        18.677920588838
  H        17.3953249099        7.7471962381        20.745508565138
  H        18.5423743797        5.8932664090        21.973211391838
  H        16.7643610935        5.7552718247        17.209061844638
  H        36.2782924621       34.4824495362        22.263051842238
  H        36.3802259513       34.2093051105        9.4997677707
  H        40.5783764703       33.2010815953        21.144022514138
  H        17.4706771291        1.9467569503        23.963840635238
  H        29.3099428878       19.5832183866       12.5391088505
  H        28.7232995017       18.7697162165        19.782705334138
  H        30.8117497343       15.4580741051        19.729383538638
  H        32.2356301465       16.5432316484       12.3254336399
  H        28.5318340283       18.2760935891       14.7279711194
  H        29.7929747821       14.0515706935       13.5824899733
  H        32.2561458261       16.9005996177        17.356369893438
  H        18.8534001791        0.8690794868       12.3352250475
  H        40.5278851776       35.2291716770        19.942025441238
  H        42.3226797742       34.4176101551        19.581095211138
  H        22.0879499853        0.6921398905       12.3513275195
  H        11.5969828425       18.7129535576       12.3825427981
  H        52.2653671841       18.4312763390        19.667433694238
  H        49.2553427071       16.4771722728        19.574303189738
  H        10.1506905422       15.7981636470       12.2923945442
  H        50.8504815526       17.6925526876        19.944002445738
  H        10.0463472788       17.3945863364       12.0519336215
  H        20.2146496997        0.0023349734       12.0420339207
  H        39.1833622946       36.1242307753        19.676107534938
 Ni        30.4798210423       17.6008435717        18.740583169238
 Ni        30.7301441466       15.9804748019       14.984481731738
 Ni        30.3962382559       17.8468188558        16.155625170138
 Ni        30.3092570123       17.5938223322       13.2479461524
  O        10.6499680470       14.3650673011        21.475604868938