     574
 i =       26, E =     -4778.9020983759
  C        11.8590341579       14.0535315807        21.731304040138
  C        12.4566314048       12.8907580027        21.012926586738
  C        11.7047293269       12.1712588053        20.071853850238
  C        12.2811700042       11.1090682575        19.379552430838
  C        13.6220026626       10.7398609363        19.606756393138
  C        14.3554735597       11.4441313016        20.579476116038
  C        13.7825257587       12.5091164545        21.270935809838
  C        14.2614512861        9.6490980822        18.833399529638
  C        14.2564324448        9.6568374332        17.411704655138
  C        13.7431722590       10.7589422142        16.657841604138
  C        49.1270598666       21.2331658379        21.869410991138
  C        48.5503163808       22.4012550421        21.142414569438
  C        49.3002635028       23.0684027924        20.161254538038
  C        48.7333493930       24.1075815682        19.428070986938
  C        47.4029219004       24.5094503306        19.656917025938
  C        46.6720989219       23.8608167666        20.670680105938
  C        47.2345349702       22.8158790976        21.399999922038
  C        46.7725936274       25.5870959670        18.859637941338
  C        46.7613919015       25.5573827315        17.437875153438
  C        47.2612644865       24.4422576745        16.694385352338
  C        14.8602625673        8.5704505480        16.698428727138
  C        14.8924305239        8.5972779866        19.510047253238
  C        49.1134384502       21.2033606458       10.1452963273
  C        48.5280759423       22.3648585103       10.8724685846
  C        49.2670957652       23.0250685936       11.8658552615
  C        48.6908430574       24.0596805748       12.5973289470
  C        47.3606784240       24.4570091993       12.3586558301
  C        46.6405306971       23.8126800395       11.3345667089
  C        47.2140318952       22.7767530937       10.6027588665
  C        46.7221831177       25.5319492492       13.1497010766
  C        46.7336418061       25.5281821984       14.5714196787
  C        47.2489939321       24.4289449928       15.3278309765
  C        40.6316453144       17.1206274956       15.3064035665
  C        40.6424531934       17.1895119590       12.4976409891
  C        11.8830980377       14.0865951628       10.2855544059
  C        12.4724323172       12.9109257261       10.9899040594
  C        11.7147692878       12.1774187126       11.9156653971
  C        12.2813595112       11.0949461221       12.5840399765
  C        13.6203225575       10.7215142870       12.3525328881
  C        14.3585116084       11.4374846833       11.3922054353
  C        13.7930876384       12.5186812487       10.7195444888
  C        14.2538272259        9.6246373564       13.1228719126
  C        14.2524192190        9.6444707207       14.5447118839
  C        13.7425494453       10.7534080000       15.2917991006
  C        22.5129337591        3.2456877959        21.740423752838
  C        23.2288176571        4.3485779106        21.036419109338
  C        24.2255727350        4.0631165875        20.091132915038
  C        24.8577580292        5.0981268601        19.406472128338
  C        24.5098349809        6.4426945194        19.645425082638
  C        23.5396035476        6.7195654891        20.626365656138
  C        22.9030130938        5.6862752013        21.309975534938
  C        25.1251065157        7.5459465600        18.870458666938
  C        25.1088282125        7.5378910468        17.448099688238
  C        24.4106850499        6.5398417271        16.696554132638
  C        38.3036596012       31.9309517492        21.838223990738
  C        37.5757140947       30.8421838263        21.126084479638
  C        36.6173911001       31.1473502669        20.147659156238
  C        36.0012274367       30.1279191241        19.427380767138
  C        36.3288764654       28.7788244930        19.664844195138
  C        37.2583472558       28.4810498401        20.678973396838
  C        37.8786454928       29.4992062190        21.397938612638
  C        35.7253728619       27.6875141925        18.868443335638
  C        35.7554216007       27.7008131801        17.447220935738
  C        36.4614373632       28.7019893971        16.708538152138
  C        25.7379390454        8.6070459290        16.731620675938
  C        25.7208696310        8.6204081485        19.544145660538
  C        38.3284335914       31.9622648726       10.1551508858
  C        37.6060314023       30.8877948635       10.8948085944
  C        36.6746178513       31.1945177764       11.8984362337
  C        36.0650897051       30.1744921640       12.6263190310
  C        36.3731185180       28.8226497036       12.3741450176
  C        37.2814965411       28.5257623972       11.3398055083
  C        37.8929291716       29.5422951760       10.6130418558
  C        35.7674220819       27.7228414497       13.1589840498
  C        35.7772699984       27.7186436540       14.5808818951
  C        36.4711073928       28.7110503493       15.3420624131
  C        46.1355828205       26.6208021647       15.2815581272
  C        46.0883815401       26.5804232080       12.4736616071
  C        22.4677502658        3.2577531975       10.2571307378
  C        23.1759708620        4.3647383452       10.9726807856
  C        24.1857039670        4.0745542916       11.9046891989
  C        24.8270720562        5.1013590973       12.5944543482
  C        24.4804322853        6.4503061407       12.3770800518
  C        23.4945848991        6.7337230546       11.4124476519
  C        22.8488660681        5.7071320253       10.7225155260
  C        25.1190681822        7.5448499583       13.1537829649
  C        25.1060587251        7.5368485138       14.5772137185
  C        24.4072760329        6.5404924566       15.3297374846
  C        26.6409435247       17.8271072267        21.730785512638
  C        25.3307799701       17.8845465409        21.019853642338
  C        25.0868732149       18.8568044569        20.037499543538
  C        23.8663794415       18.8881037606        19.367010424938
  C        22.8564916163       17.9454590576        19.648995575638
  C        23.0983100439       16.9960158250        20.660112233238
  C        24.3180047958       16.9631346699        21.333679217238
  C        21.5820560687       17.9317068306        18.887430045438
  C        21.5819769187       17.9003542248        17.464441033238
  C        22.7863767148       17.7567197581        16.704994276138
  C        34.4374824502       17.1860296804        21.865612552638
  C        35.7352093739       17.1125122128        21.135789500438
  C        35.9410045378       16.1369082435        20.148463914238
  C        37.1255520278       16.1176865071        19.417211268838
  C        38.1346219294       17.0701723354        19.657975501238
  C        37.9336795776       18.0216460324        20.675446751338
  C        36.7460772572       18.0483416225        21.401331463338
  C        39.3882866599       17.0818598339        18.872135368838
  C        39.3804366059       17.1134641091        17.451400075538
  C        38.1712912945       17.2515929141        16.699613029338
  C        20.3353590276       17.9272146185        16.755757594738
  C        20.3564004621       17.9429628303        19.569133773538
  C        34.4788057057       17.2591812946       10.1418403312
  C        35.7723066454       17.2054848605       10.8827557873
  C        35.9820760057       16.2248016229       11.8647554290
  C        37.1636946912       16.2088216202       12.5994086258
  C        38.1650330929       17.1730746494       12.3725657556
  C        37.9590934880       18.1329099851       11.3640297995
  C        36.7750587122       18.1534798453       10.6310190306
  C        39.4133251036       17.1786363816       13.1657208076
  C        39.3931185064       17.1650979549       14.5866164604
  C        38.1780352005       17.2768409462       15.3334213609
  C        35.1464330802       26.6408844757       15.2865360019
  C        35.1796452082       26.6498285578       12.4775889950
  C        26.5800427161       17.8284672969       10.3229846150
  C        25.2670396236       17.8659794058       11.0342019449
  C        25.0043616979       18.8634080595       11.9856125712
  C        23.7862496925       18.8857451385       12.6593750073
  C        22.7997988293       17.9117392706       12.4044608990
  C        23.0575223423       16.9387690490       11.4217707033
  C        24.2769583723       16.9133373212       10.7474480787
  C        21.5342107771       17.8939788724       13.1748142945
  C        21.5569064074       17.8813044398       14.5964178066
  C        22.7732900124       17.7494369624       15.3387404027
  C        14.0483677555       17.8294341289       10.2886820565
  C        15.3536988859       17.8876384686       11.0122567615
  C        15.6117853959       18.8912270028       11.9593397638
  C        16.8215753564       18.9124368565       12.6510849642
  C        17.8084807262       17.9328117601       12.4188743274
  C        17.5552647979       16.9540438169       11.4389650298
  C        16.3451316913       16.9282798962       10.7485549725
  C        19.0776273625       17.9136692194       13.1884627586
  C        19.0756629710       17.9124735852       14.6113199175
  C        17.8681719438       17.8214632540       15.3728053325
  C        46.8053171769       17.2182447629       10.1557428989
  C        45.5126709169       17.1576277471       10.8958914056
  C        45.2944232040       16.1700658714       11.8683949312
  C        44.1109182249       16.1566519154       12.6013093552
  C        43.1182905299       17.1318490454       12.3837165811
  C        43.3327334150       18.0981411031       11.3828470352
  C        44.5162570659       18.1144952105       10.6500714114
  C        41.8671703026       17.1506597710       13.1735434871
  C        41.8765041865       17.1327678540       14.5950369154
  C        43.0881269297       17.2098965922       15.3515427755
  C        20.3220633152       17.9163407440       15.3206465379
  C        20.3025368157       17.8890660137       12.5070562526
  C        46.7866998627       17.2306190353        21.877485999438
  C        45.4865902286       17.1195919579        21.156846872938
  C        45.2777142692       16.1177134849        20.196839139738
  C        44.0927459774       16.0817708572        19.466079519738
  C        43.0876677404       17.0446116694        19.679277505138
  C        43.2875450609       18.0173870436        20.676548401038
  C        44.4737624151       18.0597385170        21.402282669538
  C        41.8416140411       17.0587978691        18.881987742738
  C        41.8641010714       17.0834874291        17.461189633338
  C        43.0821371680       17.1865364557        16.718084044038
  C        46.1533198829       26.6372268150        16.716116822138
  C        46.1627467238       26.6562878421        19.525752472638
  C        14.0470285012       17.8327184026        21.698115559138
  C        15.3684792931       17.9090862980        21.008158694438
  C        15.6411785878       18.9243643914        20.078863964138
  C        16.8704510834       18.9635424851        19.424207590938
  C        17.8559536771       17.9864852979        19.671898595438
  C        17.5900967027       17.0005795995        20.639921948738
  C        16.3630043776       16.9609307539        21.298336707938
  C        19.1236678443       17.9611062450        18.902365597838
  C        19.0999193978       17.9354419655        17.480504911438
  C        17.8801701344       17.8316011240        16.738967740338
  C        28.8342797539       14.1224070434       10.3969867242
  C        28.2397989343       12.9430200463       11.0929888102
  C        28.9665199643       12.2039213028       12.0384533498
  C        28.3759627969       11.1179787416       12.6823074386
  C        27.0443266095       10.7448792126       12.4063397517
  C        26.3396813813       11.4658992323       11.4253939392
  C        26.9269972691       12.5509954853       10.7806703767
  C        26.3775846941        9.6566726061       13.1607454268
  C        26.3559892146        9.6811575829       14.5820038662
  C        26.8507267995       10.7954293079       15.3312796347
  C        32.1850005211       21.2381934611       10.1332182927
  C        32.7827297070       22.3984288629       10.8591415790
  C        32.0323690840       23.0787440793       11.8306547154
  C        32.6026068662       24.1170903878       12.5607772829
  C        33.9386723381       24.5033822469       12.3397503865
  C        34.6721100456       23.8410119429       11.3374034946
  C        34.1042223404       22.7970524253       10.6093958396
  C        34.5654847184       25.5807943703       13.1389720486
  C        34.5547120434       25.5558714282       14.5605808125
  C        34.0422355945       24.4438413461       15.3008199059
  C        25.7415196587        8.6025976518       15.2964448064
  C        25.7418382453        8.6069594808       12.4827654511
  C        32.1026839240       21.2325593239        21.862060743938
  C        32.6901787393       22.3884667092        21.126366859338
  C        31.9543152376       23.0533665708        20.133216966738
  C        32.5357464550       24.0823382243        19.396540970238
  C        33.8667578969       24.4768973695        19.635375419538
  C        34.5846021238       23.8277312174        20.658148928438
  C        34.0082181002       22.7928691774        21.389734852038
  C        34.5085477164       25.5553610296        18.849063254338
  C        34.5240231188       25.5434863423        17.427250721638
  C        34.0260426547       24.4385852077        16.667443090638
  C        40.6251244940       17.0945259289        16.740266490138
  C        40.6122421978       17.0734947518        19.549685936838
  C        28.7284446577       14.1000727830        21.768473490338
  C        28.1334203458       12.9418174385        21.041852826638
  C        28.8756881000       12.2415868424        20.078314680938
  C        28.3047072788       11.1716596764        19.393499573538
  C        26.9745805181       10.7771004842        19.643101206738
  C        26.2507704598       11.4638401405        20.636098057338
  C        26.8207443838       12.5320237698        21.325555583438
  C        26.3384895092        9.6824627024        18.870392913638
  C        26.3366235288        9.6952260254        17.448141490138
  C        26.8385162348       10.8041073703        16.696875868938
  C        18.1355630993        3.1812016278       10.3171177083
  C        17.4061756799        4.2783763445       11.0155350448
  C        16.3904139785        3.9999588263       11.9430246730
  C        15.7426647770        5.0398949141       12.6065317838
  C        16.0945656637        6.3836547449       12.3669458877
  C        17.0839469589        6.6532306014       11.4031837077
  C        17.7330869780        5.6159358763       10.7380976475
  C        15.4701974609        7.4912742959       13.1300736952
  C        15.4853466838        7.4904328562       14.5517973464
  C        16.1869028072        6.4968022352       15.3049496752
  C        42.9459793437       31.8596818274       10.0729080363
  C        43.6464329766       30.7720147303       10.8168864126
  C        44.5916725515       31.0933910423       11.8032117659
  C        45.1974504827       30.0878709211       12.5508713700
  C        44.8714037162       28.7347582064       12.3357434689
  C        43.9459290037       28.4203768139       11.3222165026
  C        43.3370431379       29.4254888728       10.5741909830
  C        45.4889663790       27.6554410167       13.1389299793
  C        45.4929038651       27.6809449088       14.5606296973
  C        44.8057188814       28.6889270016       15.3072560291
  C        14.8563900038        8.5629038023       15.2642061892
  C        14.8750814618        8.5631718098       12.4515254821
  C        42.9465251586       31.9617810061        21.798797240038
  C        43.6918504572       30.8856326642        21.085343904038
  C        44.6561983047       31.1915484381        20.112810697438
  C        45.2777609344       30.1719645846        19.395098628038
  C        44.9542718105       28.8216201785        19.632964450438
  C        44.0211044721       28.5239563708        20.644043330838
  C        43.3928114472       29.5407160530        21.356208501938
  C        45.5632584134       27.7241905620        18.847709587738
  C        45.5333736146       27.7174001346        17.426411810038
  C        44.8269657059       28.7075590988        16.673442673038
  C        35.1330999767       26.6331567217        16.721174893438
  C        35.1207248728       26.6135343826        19.530917039138
  C        18.1489033066        3.2471479507        21.696484778538
  C        17.4304513313        4.3439773320        20.987207189238
  C        16.4150424304        4.0527313805        20.063816592538
  C        15.7667826956        5.0833612566        19.388408433638
  C        16.1216631139        6.4285930741        19.610889759938
  C        17.1132962159        6.7119602137        20.567898198838
  C        17.7609316213        5.6830464587        21.247711206038
  C        15.4910476356        7.5242291898        18.838441493738
  C        15.4965846934        7.5074014834        17.417303640538
  C        16.1932281464        6.5056527413        16.670557706238
  H        10.6724023384       12.4649317082        19.895261107438
  H        11.6947806042       10.5501363399        18.653443168238
  H        15.3928054249       11.1702454257        20.760567479638
  H        14.3523238730       13.0729662110        22.005636342538
  H        13.3763458975       11.6311292062        17.191179182138
  H        50.3228975549       22.7481978060        19.976358071438
  H        49.3198187844       24.6227142637        18.670387482538
  H        45.6427412154       24.1618898211        20.854113680538
  H        46.6636801226       22.2908186322        22.162335063738
  H        47.6298972022       23.5759249097        17.236078967538
  H        14.8731898050        8.5887825798        20.598362237738
  H        50.2869581382       22.7018073679       12.0610806883
  H        49.2691817753       24.5747656410       13.3611262467
  H        45.6113906314       24.1105246781       11.1450052445
  H        46.6534881143       22.2551464597        9.8306152455
  H        47.6078593315       23.5518507794       14.7969517944
  H        40.6457187614       17.1711753610       11.4094942101
  H        48.6874420145       14.0949306256        23.789900143138
  H        10.6811876178       12.4662458074       12.0927966072
  H        11.6894995196       10.5242885635       13.2964661778
  H        15.3941422109       11.1600499635       11.2067026544
  H        14.3656997123       13.0884287573        9.9915222071
  H        13.3758645923       11.6220882807       14.7531723114
  H        47.9302663518       14.2190142190        9.7108226049
  H        47.7802872720       14.3746788641        22.485622870038
  H        49.0848064363       18.5524889840       10.8673742940
  H        10.4166065307       14.1343026464        7.9988296361
  H        24.4837613175        3.0232092668        19.903772846138
  H        25.6316019751        4.8743906354        18.675333475538
  H        23.2618478339        7.7539644396        20.818060126438
  H        22.1330086807        5.8929712874        22.049349699938
  H        23.8453052018        5.7832052428        17.232789958238
  H        36.3803908324       32.1908438937        19.954119362938
  H        35.2572366129       30.3673773614        18.670806225038
  H        37.5187248892       27.4417321582        20.868295648838
  H        38.6218454580       29.2781106226        22.160319290638
  H        37.0268165783       29.4523330102        17.253511782338
  H        25.7483359392        8.6040051639        20.632223771538
  H        36.4495385175       32.2382587016       12.1057597208
  H        35.3375498700       30.4175702818       13.3975728079
  H        37.5309198811       27.4860866888       11.1383024251
  H        38.6171852866       29.3185397932        9.8336143443
  H        37.0448878791       29.4680137543       14.8151811058
  H        46.1101109420       26.5880088099       11.3856316194
  H        44.6682982487       35.1161756789        23.803748795138
  H        24.4587739979        3.0349342830       12.0711752070
  H        25.6120202945        4.8663398433       13.3102080645
  H        23.2134469196        7.7695784658       11.2334266428
  H        22.0723513314        5.9264060049        9.9931836527
  H        23.8388727867        5.7849125194       14.7952310207
  H        44.9536631970       34.3903069261        9.6951527476
  H        44.9013504541       34.2067577185        22.480389155338
  H        40.6661100556       33.2096678220       10.8533271982
  H        23.1510937170        1.9581719229        8.0044120375
  H        25.8667925546       19.5792238296        19.809836012838
  H        23.6826801068       19.6491796584        18.611882222838
  H        22.3317408811       16.2579962559        20.887251784638
  H        24.5140361252       16.2155891954        22.098630471838
  H        23.7263945969       17.6192033025        17.232247981038
  H        35.1550140287       15.4087486493        19.961765945538
  H        37.2849935851       15.3577030005        18.655333824538
  H        38.7069278973       18.7632548910        20.864958113638
  H        36.5708024901       18.7993097596        22.168071039338
  H        37.2345495579       17.3711307328        17.236646953938
  H        20.3631994756       17.9886036472        20.656798002338
  H        35.2038188491       15.4862968025       12.0430749897
  H        37.3277210857       15.4413529223       13.3527278423
  H        38.7255854652       18.8843097709       11.1856578327
  H        36.5964159226       18.9087397482        9.8691450119
  H        37.2463347491       17.4167937629       14.7931112431
  H        35.1528584624       26.6734404207       11.3898157489
  H        28.4980364458       21.0748980106        23.860424857038
  H        25.7668499453       19.6153306018       12.1765608820
  H        23.5829950605       19.6632038215       13.3926630934
  H        22.3050524154       16.1794195210       11.2188739144
  H        24.4903672645       16.1506442859       10.0023970205
  H        23.7032507822       17.6087683975       14.7960429094
  H        28.9974010371       21.7262948020        9.7397787564
  H        29.1885081990       21.7228581663        22.553113096338
  H        32.1394596302       18.6023264206       10.8889541938
  H        27.4016011970       19.0624988511        8.0151649070
  H        14.8537439269       19.6504957456       12.1383292958
  H        17.0171216399       19.6972263202       13.3786824615
  H        18.3061993736       16.1896664522       11.2497556239
  H        16.1392362433       16.1587987907       10.0082889773
  H        16.9249017416       17.7103218211       14.8459955017
  H        46.0694490680       15.4276729385       12.0438181229
  H        43.9408130869       15.3841123887       13.3479817117
  H        42.5735573815       18.8584150133       11.2113037065
  H        44.7004631750       18.8743284202        9.8942712064
  H        44.0292051514       17.3220478903       14.8207413611
  H        20.2974176906       17.9200578627       11.4189238584
  H        46.0597329133       15.3815920233        20.025380491838
  H        43.9331916780       15.3039980169        18.722414751438
  H        42.5158639616       18.7653393090        20.846261582738
  H        44.6496113470       18.8292286493        22.150020581238
  H        44.0186686081       17.2803709558        17.260204294538
  H        46.1998588304       26.6829815873        20.613186310538
  H        52.7413949796       21.0627085686        8.1947179510
  H        14.8798527809       19.6770320502        19.886089569338
  H        17.0799180724       19.7543324943        18.707061112438
  H        18.3417412998       16.2396792076        20.839908197338
  H        16.1438960718       16.1862815479        22.029186758138
  H        16.9457632775       17.7282755325        17.282350022638
  H        52.3229971704       21.6734338101        22.283853143838
  H        52.0134844399       21.7022076751        9.4956642486
  H        49.0686363579       18.6077720115        21.193306677638
  H        13.2481012033       19.0158705079        23.967117268738
  H        29.9926708774       12.4915594048       12.2562713120
  H        28.9430727499       10.5460510472       13.4135995920
  H        25.3104124367       11.1912795636       11.2038203026
  H        26.3777709051       13.1258085577       10.0393199347
  H        27.2129348706       11.6667881161       14.7942644711
  H        31.0052877869       22.7689234049       12.0074222952
  H        32.0153876445       24.6445294820       13.3093446175
  H        35.7061679493       24.1303759732       11.1614169166
  H        34.6752622098       22.2610825662        9.8547212751
  H        33.6847915390       23.5749520239       14.7556806496
  H        25.7750061109        8.5903412241       11.3947289788
  H        30.9292304017       22.7441628207        19.943348865038
  H        31.9590017136       24.5979385074        18.631749368438
  H        35.6145723278       24.1223175399        20.848492183038
  H        34.5686354105       22.2683862935        22.160107547738
  H        33.6563939686       23.5653927893        17.197546443638
  H        40.6073806610       17.0276395309        20.637031047838
  H        32.5128425684       14.1513251194        8.2269012084
  H        29.9014490545       12.5463886822        19.884121306038
  H        28.8882268471       10.6253281035        18.655691926238
  H        25.2213537171       11.1735539094        20.835843928338
  H        26.2566379483       13.0779678559        22.077923264438
  H        27.1883020794       11.6829580089        17.230734638338
  H        33.2921611506       14.1978359284        22.426909657638
  H        33.4133011067       14.3759749254        9.5952610858
  H        32.0553927348       18.5109192739        21.042851737838
  H        30.2321496605       14.1951221678        8.0617800916
  H        16.1183571182        2.9634525523       12.1293936565
  H        14.9532078546        4.8204857907       13.3221720895
  H        17.3664465854        7.6861062482       11.2101603198
  H        18.5151915188        5.8187273336       10.0103599341
  H        16.7535375625        5.7395250825       14.7714460068
  H        44.8276842882       32.1405050696       11.9775933239
  H        45.9371211011       30.3417040673       13.3069825748
  H        43.6836345275       27.3782551966       11.1518063962
  H        42.6007423616       29.1901265649        9.8092306689
  H        44.2304142671       29.4367241910       14.7689393344
  H        14.8515629149        8.5466236895       11.3632970429
  H        44.8995577121       32.2342439157        19.921191477538
  H        46.0245040111       30.4132360889        18.641711794338
  H        43.7644972799       27.4841933836        20.835900210738
  H        42.6466134138       29.3179326705        22.114953278738
  H        44.2684864133       29.4704741275        17.208018169338
  H        35.0793310946       26.6276446227        20.618400065938
  H        36.6052663688       35.1342476816        8.1806246830
  H        16.1437436065        3.0131855106        19.894282050938
  H        14.9743089212        4.8565576236        18.678479664038
  H        17.3971077058        7.7473923978        20.744522306438
  H        18.5440373351        5.8935728498        21.972207118238
  H        16.7648105226        5.7554904341        17.208944760438
  H        36.2789381903       34.4826110832        22.262959474138
  H        36.3813205788       34.2090935293        9.4995397211
  H        40.5809690312       33.2036089101        21.143094705738
  H        17.4714886182        1.9480289312        23.964198373038
  H        29.2329481568       19.4398631809       12.4329589595
  H        29.7249334202       19.7242648523        19.433891344038
  H        30.4706178117       15.8273639540        19.653424929538
  H        31.0762294677       15.5145255483       12.2958427456
  H        28.0114249088       17.8273073288       14.2229244235
  H        29.2909106526       15.7640295962       14.5108418883
  H        31.4770174863       19.5107042176        16.940659049538
  H        32.3772563110       16.3299204350        17.707664299338
  H        28.2489131762       17.5891287437        19.031149603738
  H        33.5316030601       16.7308326218       14.8351391451
  H        18.8538312609        0.8691052371       12.3353967730
  H        40.5277062659       35.2288179962        19.941655922438
  H        42.3250445229       34.4196561595        19.579886440338
  H        22.0877355932        0.6922498087       12.3517194511
  H        11.5968612282       18.7127171159       12.3826729690
  H        52.2651938059       18.4315953070        19.667003715838
  H        49.2553988814       16.4770749102        19.574196048738
  H        10.1495996239       15.7982741689       12.2932190690
  H        50.8505647457       17.6923972341        19.943882581338
  H        10.0459757696       17.3945566439       12.0519268721
  H        20.2152075082        0.0024100244       12.0419859238
  H        39.1835467732       36.1241961965        19.676013220938
 Ni        30.9032058934       17.8886753494        18.497044884838
 Ni        31.1108791486       16.6476848051       15.735535721938