     564
 i =      135, E =     -4680.1621552180
  C        11.8585460973       14.0534205736        21.731319163838
  C        12.4559044025       12.8904252364        21.013048081338
  C        11.7042928439       12.1717831818        20.071097698038
  C        12.2805666911       11.1095100838        19.378773650538
  C        13.6210084152       10.7393354520        19.606754206238
  C        14.3540724649       11.4425729490        20.580562524438
  C        13.7812613140       12.5075863361        21.272072611238
  C        14.2604447644        9.6486346285        18.833336004438
  C        14.2555612188        9.6564588737        17.411628636738
  C        13.7424120410       10.7585638660        16.657684340538
  C        49.1265987789       21.2334224205        21.869535926838
  C        48.5497649217       22.4012712228        21.142527070738
  C        49.2997224921       23.0684798636        20.161383833438
  C        48.7327414292       24.1075373278        19.428136483338
  C        47.4022232771       24.5092313067        19.656837624838
  C        46.6713662174       23.8605007524        20.670522225138
  C        47.2338515972       22.8156515265        21.399918719238
  C        46.7719872197       25.5868881859        18.859542032238
  C        46.7610076273       25.5572195740        17.437786870438
  C        47.2609027691       24.4421072944        16.694297136138
  C        14.8593740588        8.5700522904        16.698353829538
  C        14.8913242983        8.5967238576        19.509971588638
  C        49.1129266651       21.2035188221       10.1452410408
  C        48.5275146770       22.3648072387       10.8723623575
  C        49.2666317218       23.0252893911       11.8655283247
  C        48.6902671974       24.0597800842       12.5970280113
  C        47.3599370412       24.4567455859       12.3586052261
  C        46.6396856710       23.8121081167       11.3347853749
  C        47.2132616642       22.7762699366       10.6029334153
  C        46.7214886750       25.5316805555       13.1496400592
  C        46.7331915481       25.5279831466       14.5713408239
  C        47.2486346243       24.4287880875       15.3277446623
  C        40.6187153696       17.0861514287       15.3159671453
  C        40.6378199009       17.1375562805       12.5056431224
  C        11.8827449969       14.0862325728       10.2853842961
  C        12.4717062751       12.9102219183       10.9894491987
  C        11.7141854235       12.1775401331       11.9159816643
  C        12.2805144628       11.0949912210       12.5844404668
  C        13.6190841685       10.7205653424       12.3522283316
  C        14.3569691967       11.4354817316       11.3908531452
  C        13.7917951735       12.5167404608       10.7181055811
  C        14.2525506115        9.6238171437       13.1227182720
  C        14.2513639416        9.6438941091       14.5445621116
  C        13.7416770266       10.7529268014       15.2916371767
  C        22.5063138663        3.2429911861        21.738436624238
  C        23.2093803467        4.3467703398        21.027097473638
  C        24.2080065202        4.0652674975        20.083300522538
  C        24.8282754937        5.1034397865        19.393666403038
  C        24.4642761947        6.4442080123        19.627624931638
  C        23.4905916342        6.7173844046        20.605422528138
  C        22.8665949352        5.6811826177        21.294384598138
  C        25.0715904789        7.5494028097        18.853184249538
  C        25.0639250686        7.5378613744        17.432083072338
  C        24.3717096411        6.5357869585        16.681080078838
  C        38.3012845510       31.9266532958        21.837505562838
  C        37.5687990721       30.8371553540        21.127185582938
  C        36.6059035264       31.1426883864        20.152667753938
  C        35.9830940862       30.1244995908        19.435238317338
  C        36.3070939428       28.7733543907        19.668882177638
  C        37.2410952271       28.4753300587        20.679450798338
  C        37.8679261484       29.4923424336        21.396104545738
  C        35.6983411666       27.6830647908        18.871000369038
  C        35.7272618457       27.6984557936        17.448855039538
  C        36.4312038919       28.7014688541        16.710707027138
  C        25.6961325631        8.6061788396        16.717882241938
  C        25.6546463340        8.6284648006        19.528537785638
  C        38.3264308431       31.9608386320       10.1560605838
  C        37.5995468479       30.8879573703       10.8956488488
  C        36.6678889165       31.1980379312       11.8985257591
  C        36.0510217207       30.1810535260       12.6251071303
  C        36.3505987591       28.8269254446       12.3736732622
  C        37.2598897077       28.5269198978       11.3404758022
  C        37.8787641941       29.5404869959       10.6148376599
  C        35.7377761085       27.7287249285       13.1577740071
  C        35.7472348096       27.7218109443       14.5803847001
  C        36.4401960375       28.7130235486       15.3440445083
  C        46.1352389244       26.6206583140       15.2814586368
  C        46.0875038690       26.5800220911       12.4735868888
  C        22.4647404096        3.2540153617       10.2524798692
  C        23.1699510120        4.3600972075       10.9657536802
  C        24.1802168603        4.0691793978       11.8961270173
  C        24.8177228814        5.0967537421       12.5862669370
  C        24.4639881711        6.4429457964       12.3679845029
  C        23.4783360054        6.7273053801       11.4044601224
  C        22.8365078238        5.7000287609       10.7141324755
  C        25.0967313242        7.5371307342       13.1442752214
  C        25.0772824544        7.5309733524       14.5660872099
  C        24.3752643399        6.5344040109       15.3149021861
  C        26.5544075184       17.8250995347        21.781472965038
  C        25.2548134535       17.8814273274        21.051983774638
  C        24.9958562752       18.9031999839        20.125349080738
  C        23.7893620872       18.9322097690        19.430385367238
  C        22.8092679270       17.9425431561        19.642504670438
  C        23.0631038361       16.9430893177        20.600083082338
  C        24.2712549914       16.9093174403        21.293314000838
  C        21.5440018122       17.9387040326        18.869809686138
  C        21.5538404088       17.9421154434        17.448080378038
  C        22.7653267886       17.8414790401        16.693667881438
  C        34.4185586424       17.2137509109        21.899397166738
  C        35.7127934228       17.1449298916        21.161149914138
  C        35.9079501621       16.1728408915        20.167400503538
  C        37.0906913830       16.1447150486        19.433233565238
  C        38.1096756569       17.0883496495        19.669980254938
  C        37.9164631497       18.0401350091        20.689833571838
  C        36.7324716645       18.0727249350        21.423091873838
  C        39.3641284887       17.0890268662        18.881847734838
  C        39.3598775437       17.0969400462        17.459271334938
  C        38.1526278713       17.2097821989        16.699835873938
  C        20.3106982652       17.9624289573        16.734905899538
  C        20.3179370010       17.9261896242        19.547146654238
  C        34.4519928518       17.1839401714       10.1744088597
  C        35.7555403426       17.1150232394       10.8949382213
  C        35.9940277792       16.1119450431       11.8471620065
  C        37.1784394197       16.1028562174       12.5785343384
  C        38.1585781026       17.0931017672       12.3735608657
  C        37.9292628406       18.0708567751       11.3874125253
  C        36.7404075545       18.0874416301       10.6620574457
  C        39.4066834422       17.1130726777       13.1701560049
  C        39.3818576424       17.1085117167       14.5915366806
  C        38.1627616000       17.2120004528       15.3329903093
  C        35.1175353960       26.6419009274       15.2846524836
  C        35.1463210947       26.6580208163       12.4750997303
  C        26.5679747088       17.8298956680       10.3293111209
  C        25.2533269456       17.8894823689       11.0283515890
  C        24.9740503405       18.9279957458       11.9295021522
  C        23.7555073956       18.9616703164       12.6012908173
  C        22.7889401223       17.9588438389       12.3916184027
  C        23.0608739917       16.9456012436       11.4550373164
  C        24.2802241877       16.9085020630       10.7828083750
  C        21.5239098283       17.9489227652       13.1612358676
  C        21.5429716488       17.9477124404       14.5820012591
  C        22.7601755813       17.8451456036       15.3274765778
  C        14.0455087950       17.8327905522       10.2831478390
  C        15.3523491879       17.8999140022       10.9989768221
  C        15.6107975113       18.9168964893       11.9307481515
  C        16.8215753269       18.9465742957       12.6186421928
  C        17.8047399740       17.9621255214       12.3953706182
  C        17.5522994958       16.9705346582       11.4292980343
  C        16.3409933402       16.9365514418       10.7425660813
  C        19.0705672085       17.9510801596       13.1661113424
  C        19.0618450272       17.9497026697       14.5875719465
  C        17.8504354109       17.8465926949       15.3412626700
  C        46.8037046288       17.2185544078       10.1590988695
  C        45.5126683786       17.1551359576       10.9044608462
  C        45.3054996317       16.1737645671       11.8863230344
  C        44.1228421041       16.1520971312       12.6211144024
  C        43.1164429942       17.1121580545       12.3973263077
  C        43.3211972255       18.0736963193       11.3891096947
  C        44.5044506215       18.0988869240       10.6547711002
  C        41.8619685219       17.1177891783       13.1851708035
  C        41.8659314347       17.1065943624       14.6075253088
  C        43.0740591199       17.1994136161       15.3679040696
  C        20.3048419519       17.9638746873       15.3010783482
  C        20.2963256350       17.9302352961       12.4885468232
  C        46.7824838767       17.2307144532        21.877817903538
  C        45.4778790900       17.1209022597        21.162345302038
  C        45.2597037918       16.1180967485        20.205080285238
  C        44.0705768078       16.0845848700        19.480150361338
  C        43.0680147961       17.0506960361        19.694281810638
  C        43.2768110167       18.0237191411        20.689841504238
  C        44.4672041029       18.0635484303        21.409984276338
  C        41.8202422974       17.0660058095        18.896937808038
  C        41.8446382060       17.0787035385        17.475485296838
  C        43.0638293263       17.1838773403        16.734478611938
  C        46.1529781829       26.6370622495        16.716003114238
  C        46.1620547968       26.6560230333        19.525658816538
  C        14.0395523128       17.8277973522        21.695543672838
  C        15.3526114843       17.8959349666        20.993735323938
  C        15.6225363985       18.9192463870        20.073221609438
  C        16.8459134915       18.9563621267        19.409409401538
  C        17.8238063525       17.9690400519        19.641772909238
  C        17.5592720469       16.9711094151        20.596829556038
  C        16.3381196115       16.9338375968        21.264710608838
  C        19.0899833799       17.9532299873        18.874485611838
  C        19.0721981557       17.9494515384        17.453524398138
  C        17.8555641092       17.8464441921        16.707213372638
  C        28.8076253671       14.0785230926       10.3582619209
  C        28.2111263807       12.8994989676       11.0450843657
  C        28.9415072513       12.1736245823       11.9973819817
  C        28.3511282853       11.0984481139       12.6570384192
  C        27.0185088963       10.7269198612       12.3871090310
  C        26.3116228379       11.4326618174       11.3968569386
  C        26.8985320110       12.5080327469       10.7363607956
  C        26.3523752783        9.6469214436       13.1498110874
  C        26.3283513467        9.6745648807       14.5704761425
  C        26.8270468744       10.7875260475       15.3190511177
  C        32.1758236056       21.2430510343       10.1052465167
  C        32.7604567313       22.4073452905       10.8325502886
  C        32.0119687408       23.0666067595       11.8204592406
  C        32.5779325718       24.1025244079       12.5584920138
  C        33.9071451962       24.5095949512       12.3300714502
  C        34.6374636929       23.8668839177       11.3117811829
  C        34.0756852891       22.8246283950       10.5768444031
  C        34.5325752463       25.5861785505       13.1339810568
  C        34.5272074512       25.5567318987       14.5563037747
  C        34.0256856025       24.4390408905       15.2952956869
  C        25.7090018479        8.5985310581       15.2841641086
  C        25.7193368187        8.5967117885       12.4723942629
  C        32.0780626823       21.1973935072        21.839119467338
  C        32.6632136745       22.3600783671        21.105463695238
  C        31.9380234078       23.0072875390        20.092949364438
  C        32.5162206917       24.0465425715        19.366943673838
  C        33.8352354567       24.4673436951        19.630167034938
  C        34.5412894790       23.8340664957        20.671349850738
  C        33.9672511193       22.7920876133        21.395374734038
  C        34.4786722232       25.5492003220        18.847497787538
  C        34.4995971016       25.5384178622        17.424764815838
  C        34.0114521398       24.4309582746        16.662062359038
  C        40.6073186326       17.0756480923        16.751038149338
  C        40.5885114485       17.0895831187        19.561077205838
  C        28.6638453668       14.0636115010        21.806952800738
  C        28.0606731518       12.9187868629        21.066242859138
  C        28.8155926923       12.2075322664        20.120885782638
  C        28.2435542072       11.1521731784        19.416158652238
  C        26.9021762645       10.7810324873        19.634606309438
  C        26.1635391074       11.4779975462        20.608888145138
  C        26.7336282805       12.5353375973        21.314650852538
  C        26.2742829733        9.6884647533        18.855831152438
  C        26.2898675046        9.6959817124        17.434664337738
  C        26.8064670301       10.7988069031        16.684615391838
  C        18.1352625495        3.1808709484       10.3170981198
  C        17.4057115055        4.2780017247       11.0157235779
  C        16.3898008186        3.9993835650       11.9429403942
  C        15.7418105937        5.0392016586       12.6064414179
  C        16.0936329801        6.3829730509       12.3669942171
  C        17.0832408590        6.6527545430       11.4035450461
  C        17.7325993039        5.6155737849       10.7384832022
  C        15.4690800233        7.4905388043       13.1300640034
  C        15.4844029977        7.4899159435       14.5517799564
  C        16.1860763333        6.4963724698       15.3049287427
  C        42.9457535626       31.8594461106       10.0727352294
  C        43.6460541446       30.7716963212       10.8167229148
  C        44.5916672588       31.0930067325       11.8027074135
  C        45.1972955453       30.0874735336       12.5504529154
  C        44.8707370411       28.7344404006       12.3356661001
  C        43.9448323932       28.4200848349       11.3225413876
  C        43.3360995457       29.4252354186       10.5744364692
  C        45.4883190432       27.6551481852       13.1388591503
  C        45.4924590406       27.6807501337       14.5605524580
  C        44.8054394896       28.6888495022       15.3071671098
  C        14.8554351396        8.5624238732       15.2641249405
  C        14.8737209063        8.5622331342       12.4514571997
  C        42.9463909897       31.9615698034        21.798766732138
  C        43.6915668780       30.8853828333        21.085236642538
  C        44.6563035923       31.1913011863        20.113096767038
  C        45.2777558724       30.1716798597        19.395350632938
  C        44.9537651694       28.8213965023        19.632827695738
  C        44.0200991459       28.5237563179        20.643432181538
  C        43.3918883007       29.5405279646        21.355649308138
  C        45.5627793294       27.7239925363        18.847564602538
  C        45.5330593529       27.7172611029        17.426270737038
  C        44.8267165733       28.7074994633        16.673351025238
  C        35.1055420806       26.6313340435        16.720298641938
  C        35.0903638268       26.6083719544        19.530651464238
  C        18.1483998410        3.2467799333        21.696416337638
  C        17.4297309170        4.3435949791        20.987028243938
  C        16.4143811126        4.0522585278        20.063651216938
  C        15.7659921551        5.0828670047        19.388279766238
  C        16.1207452312        6.4281101639        19.610778023438
  C        17.1122947382        6.7115325982        20.567838917238
  C        17.7600357537        5.6826655971        21.247621448038
  C        15.4900548556        7.5237451223        18.838374165938
  C        15.4957716810        7.5070440625        17.417233040138
  C        16.1924459064        6.5052834053        16.670533370638
  H        10.6722728862       12.4661654646        19.893863399438
  H        11.6943035374       10.5512318480        18.652058902138
  H        15.3909704051       11.1676489481        20.762570389638
  H        14.3506502438       13.0704429837        22.007852776138
  H        13.3755808039       11.6307937666        17.190942112638
  H        50.3224058550       22.7484033890        19.976584730338
  H        49.3191530522       24.6227274897        18.670451344238
  H        45.6419146267       24.1613675514        20.853773305938
  H        46.6628821741       22.2905265358        22.162125443138
  H        47.6294120959       23.5757144844        17.235974537938
  H        14.8718243622        8.5879945600        20.598281879838
  H        50.2865893457       22.7022736670       12.0606176994
  H        49.2685637315       24.5750793126       13.3607076161
  H        45.6103822192       24.1095670233       11.1455143120
  H        46.6525369430       22.2543390309        9.8311421148
  H        47.6073548368       23.5516294611       14.7968758644
  H        40.6442418312       17.1166042617       11.4175014173
  H        48.6870382504       14.0950867553        23.789804356538
  H        10.6809314335       12.4671598192       12.0937359500
  H        11.6887096803       10.5250045163       13.2974499009
  H        15.3921856750       11.1570302874       11.2045581067
  H        14.3641671666       13.0856341365        9.9892294403
  H        13.3749262627       11.6215783343       14.7530141522
  H        47.9301402061       14.2182337212        9.7108609275
  H        47.7799519420       14.3738926212        22.485130111338
  H        49.0830343953       18.5523928476       10.8671995771
  H        10.4159536614       14.1343021543        7.9987677611
  H        24.4766816585        3.0269439024        19.902211320338
  H        25.6049831389        4.8863542098        18.663610393738
  H        23.2020313701        7.7499766958        20.790494189138
  H        22.0941170445        5.8813028275        22.032820721038
  H        23.8055213868        5.7796208917        17.217083858838
  H        36.3694590752       32.1863991528        19.959380803738
  H        35.2362647273       30.3675782688        18.682566689638
  H        37.5005062122       27.4356769629        20.868537043138
  H        38.6135870051       29.2674292679        22.155097232838
  H        36.9959808742       29.4519407199        17.256155500338
  H        25.6732013364        8.6161480566        20.616783168638
  H        36.4475445265       32.2426926324       12.1063975720
  H        35.3235601673       30.4290239717       13.3949020676
  H        37.5043230486       27.4861558994       11.1383429046
  H        38.6027106808       29.3118405680        9.8364389948
  H        37.0130065295       29.4719015125       14.8188749346
  H        46.1089266902       26.5874584580       11.3855518298
  H        44.6682292101       35.1162010327        23.803900795838
  H        24.4548153217        3.0296809864       12.0602414243
  H        25.6034472025        4.8662334900       13.3025550006
  H        23.1954682582        7.7630918361       11.2281570795
  H        22.0588771428        5.9148597796        9.9848291785
  H        23.8110030191        5.7777614692       14.7776123707
  H        44.9536674401       34.3899216539        9.6947465343
  H        44.9018460015       34.2068170749        22.480542962938
  H        40.6651039434       33.2084140917       10.8527810224
  H        23.1500519279        1.9578521342        8.0030698612
  H        25.7486485837       19.6720036231        19.967266912938
  H        23.5899902896       19.7293891555        18.717470232638
  H        22.3148616045       16.1715038299        20.769487611438
  H        24.4819512065       16.1260026354        22.017695881838
  H        23.7049347157       17.7282228273        17.226678129038
  H        35.1144551081       15.4538066793        19.976986153638
  H        37.2398466249       15.3827747059        18.671321028838
  H        38.6938750973       18.7778793796        20.877474199038
  H        36.5687289730       18.8235161076        22.192697292138
  H        37.2113786836       17.3276274262        17.229135290038
  H        20.3198841457       17.9479078363        20.635461273138
  H        35.2370529825       15.3485889354       12.0101275534
  H        37.3590362182       15.3232597630       13.3154134997
  H        38.6794429783       18.8417740659       11.2236699934
  H        36.5423327685       18.8604833609        9.9232300622
  H        37.2292779278       17.3295986648       14.7897547324
  H        35.1181693530       26.6849578867       11.3873955730
  H        28.5044887322       21.1013445225        23.878554817838
  H        25.7231848829       19.7008045921       12.0857709054
  H        23.5375207684       19.7678748294       13.2984569637
  H        22.3204986378       16.1656802752       11.2895457875
  H        24.5086462952       16.1146964704       10.0756635878
  H        23.6958220633       17.7355915704       14.7870056312
  H        28.9627496334       21.7327792710        9.7119526685
  H        29.1814694259       21.7107363986        22.509901590538
  H        32.3510301390       18.6985842851       10.7295921484
  H        27.3416676843       19.0699204031        8.0872013790
  H        14.8518790008       19.6772310908       12.1008048592
  H        17.0207304251       19.7389626659       13.3369502534
  H        18.3034386918       16.2040759703       11.2497987299
  H        16.1310419986       16.1584677216       10.0125783676
  H        16.9109769468       17.7337964369       14.8081519965
  H        46.0882931783       15.4407635217       12.0667654880
  H        43.9637353912       15.3824847646       13.3732388296
  H        42.5533775024       18.8238223492       11.2112491885
  H        44.6775255426       18.8556098910        9.8931048805
  H        44.0160622559       17.3166966812       14.8398726243
  H        20.2948993237       17.9518989844       11.4002433671
  H        46.0379520495       15.3787076083        20.030133669838
  H        43.9061903348       15.3057577387        18.738621072538
  H        42.5090915480       18.7750647278        20.862830076738
  H        44.6476131888       18.8342267056        22.155452915938
  H        43.9981560163       17.2879908333        17.278502525838
  H        46.1988975936       26.6826014245        20.613103633638
  H        52.7411886480       21.0626438169        8.1946182409
  H        14.8644673833       19.6790938351        19.896941585938
  H        17.0581522026       19.7533144117        18.699996679838
  H        18.3073245323       16.2026120446        20.780285947938
  H        16.1164554018       16.1532083253        21.988355148238
  H        16.9198892945       17.7335711925        17.246627993638
  H        52.3222794249       21.6736040563        22.284522317138
  H        52.0133824789       21.7025240865        9.4954353310
  H        49.0670990427       18.6076740999        21.194007350338
  H        13.2471935930       19.0164747984        23.965437953338
  H        29.9650232569       12.4737568941       12.2110318119
  H        28.9168951063       10.5352127766       13.3959993231
  H        25.2821516838       11.1540685361       11.1815765876
  H        26.3496609134       13.0756868077        9.9890628085
  H        27.1995666685       11.6546124261       14.7817077240
  H        30.9914066105       22.7403040137       12.0067500492
  H        31.9914435213       24.6111843712       13.3204713902
  H        35.6664427579       24.1696357286       11.1288250364
  H        34.6478306438       22.3047586842        9.8118412491
  H        33.6770190233       23.5662103568       14.7505514729
  H        25.7558296371        8.5775831604       11.3846076776
  H        30.9255586597       22.6723428786        19.878860036538
  H        31.9453242840       24.5480563031        18.588558875538
  H        35.5622152858       24.1455300265        20.882514813838
  H        34.5208444132       22.2824077767        22.180383846638
  H        33.6516760421       23.5517201902        17.188935241038
  H        40.5814709447       17.0562322293        20.648917032838
  H        32.5127356102       14.1401099249        8.1677421311
  H        29.8530949763       12.4905430300        19.959025846538
  H        28.8346219952       10.5964932764        18.691448808038
  H        25.1255824458       11.2016722507        20.782571301338
  H        26.1617888022       13.0903599955        22.054589201038
  H        27.1618911113       11.6748002134        17.219415195038
  H        33.2925344027       14.2421910544        22.349760876838
  H        33.4104789025       14.3832298401        9.5228292862
  H        32.0902449262       18.5314372190        21.124804668038
  H        30.1884376010       14.1365132273        8.0671226281
  H        16.1178667472        2.9628105621       12.1291441175
  H        14.9522228675        4.8196310933       13.3218917587
  H        17.3656839661        7.6856780408       11.2107088954
  H        18.5148458915        5.8183944859       10.0109032390
  H        16.7526168226        5.7390422416       14.7713956037
  H        44.8279797513       32.1400897109       11.9768473107
  H        45.9372091044       30.3412070160       13.3063575587
  H        43.6820063586       27.3780319948       11.1525314226
  H        42.5993567343       29.1899533011        9.8098753756
  H        44.2301001733       29.4366079718       14.7688321267
  H        14.8499879379        8.5454182000       11.3632375952
  H        44.8999728423       32.2339824079        19.921798955138
  H        46.0247646060       30.4128971813        18.642211033138
  H        43.7629419551       27.4840430600        20.834816514038
  H        42.6452395934       29.3177825359        22.113965715138
  H        44.2682549809       29.4704209782        17.207938649338
  H        35.0468377605       26.6216790473        20.618116151238
  H        36.6052199350       35.1338487667        8.1807502605
  H        16.1432704771        3.0126631760        19.894070539738
  H        14.9735512235        4.8559588052        18.678344696138
  H        17.3959267835        7.7469973846        20.744538286138
  H        18.5430021896        5.8931612039        21.972275658138
  H        16.7640166371        5.7551388444        17.208960316138
  H        36.2788350902       34.4819248839        22.263055071238
  H        36.3810785205       34.2090555818        9.4998373444
  H        40.5797366006       33.2022684288        21.143565426238
  H        17.4708245708        1.9470155242        23.963769164438
  H        28.9059823598       18.8510823288       12.4018464274
  H        28.7087696093       18.9682586157        19.803517501638
  H        30.6423871121       15.4813429387        19.793442936338
  H        32.4267282360       15.9736993249       12.2462530214
  H        18.8539046011        0.8690049919       12.3353202984
  H        40.5282466582       35.2287850417        19.941862121038
  H        42.3237265967       34.4186308315        19.580052820738
  H        22.0874036178        0.6922073029       12.3516010512
  H        11.5966184982       18.7128504096       12.3826636397
  H        52.2647187646       18.4313473508        19.667260294138
  H        49.2550197990       16.4765480756        19.573987685538
  H        10.1504023912       15.7982738935       12.2925449028
  H        50.8499113468       17.6926857517        19.943794182938
  H        10.0460628196       17.3947177660       12.0519085495
  H        20.2152964053        0.0021006066       12.0419041038
  H        39.1837387165       36.1243672639        19.676299239738
 Ni        30.5530003221       17.7089142315        18.981287404038
 Ni        31.6239850048       17.5164435763       14.8177117798
 Ni        30.2666444339       17.8096072114        16.498534265738
 Ni        31.2411620443       18.0380029175       12.6603416100
  O        10.6497758862       14.3652249207        21.475587159538
  O        12.6130254039       14.6574124987        22.573648907338
  O        49.1476464769       16.8459302346        23.979450584438
  O        50.3501092618       20.9362718104        21.638034753338