     562
 i =      233, E =     -4678.9391994562
  C        11.8585601744       14.0533549023        21.731349204638
  C        12.4558825345       12.8903422646        21.013145894538
  C        11.7042814586       12.1717165750        20.071167122838
  C        12.2805690039       11.1094714257        19.378822709938
  C        13.6210012758       10.7392737508        19.606831918138
  C        14.3540469343       11.4424863721        20.580672544338
  C        13.7812308381       12.5074809016        21.272204270838
  C        14.2604565172        9.6486083159        18.833388768838
  C        14.2555278969        9.6564516979        17.411682390838
  C        13.7424325542       10.7585768440        16.657734065738
  C        49.1266104611       21.2334111044        21.869526871038
  C        48.5498045144       22.4012765709        21.142538885638
  C        49.2997478677       23.0684168344        20.161333962238
  C        48.7327797421       24.1074850853        19.428090390838
  C        47.4023210986       24.5093215163        19.656891291338
  C        46.6715105780       23.8606729485        20.670668246538
  C        47.2339674220       22.8158114016        21.400062311938
  C        46.7720257482       25.5869180834        18.859562807538
  C        46.7610293377       25.5572367930        17.437806475538
  C        47.2609135471       24.4421085476        16.694331416938
  C        14.8594051701        8.5700854525        16.698400677838
  C        14.8913592408        8.5966958653        19.509999060938
  C        49.1129054383       21.2034794103       10.1453027944
  C        48.5275209172       22.3648109730       10.8723572712
  C        49.2665958456       23.0252149281       11.8656087272
  C        48.6902451842       24.0597055109       12.5971176669
  C        47.3599684879       24.4567896786       12.3585875150
  C        46.6397757951       23.8122813098       11.3346377985
  C        47.2133526135       22.7764527233       10.6027771411
  C        46.7214588143       25.5316712680       13.1496438445
  C        46.7332064053       25.5279751982       14.5713475881
  C        47.2486273003       24.4287858341       15.3277772998
  C        40.6188545675       17.0794529547       15.3176314163
  C        40.6376679839       17.1344585170       12.5072235954
  C        11.8828012236       14.0862628387       10.2854604272
  C        12.4717790290       12.9102779502       10.9894957367
  C        11.7142689043       12.1776144139       11.9160560942
  C        12.2806213911       11.0950556253       12.5844691922
  C        13.6192078249       10.7206652746       12.3522845615
  C        14.3570858175       11.4356187693       11.3909316546
  C        13.7919162296       12.5168907073       10.7182086339
  C        14.2526752983        9.6239240872       13.1227776349
  C        14.2514203780        9.6439278082       14.5446200430
  C        13.7417345453       10.7529678822       15.2916871305
  C        22.5060536287        3.2428383290        21.738114333238
  C        23.2086808906        4.3460797561        21.025795868638
  C        24.2079484867        4.0637399073        20.082918493938
  C        24.8286140176        5.1012701439        19.392744451238
  C        24.4640430335        6.4421679002        19.624995892038
  C        23.4893043311        6.7161718949        20.601532573638
  C        22.8650675585        5.6806292627        21.291191457638
  C        25.0723182658        7.5469725733        18.850958495438
  C        25.0682467245        7.5344922629        17.429883696238
  C        24.3785834893        6.5314350007        16.677906058538
  C        38.3002678084       31.9274130389        21.838231067938
  C        37.5638921709       30.8398467397        21.129049052538
  C        36.5985028452       31.1495703704        20.158280626538
  C        35.9697519151       30.1344691899        19.441988015138
  C        36.2904865084       28.7821206826        19.672596859038
  C        37.2274884689       28.4797575261        20.679139442638
  C        37.8599723094       29.4938683075        21.395149913938
  C        35.6751168795       27.6954041499        18.874978765438
  C        35.7005018110       27.7126187035        17.452703421338
  C        36.4065985180       28.7140735386        16.714541043538
  C        25.7010871448        8.6030558478        16.716624315938
  C        25.6525760939        8.6269565874        19.527217012738
  C        38.3256995787       31.9608261837       10.1564581699
  C        37.5962483626       30.8897409992       10.8969569376
  C        36.6615525972       31.2034851089       11.8960824276
  C        36.0401625921       30.1894837011       12.6230941784
  C        36.3380436719       28.8340059740       12.3765238609
  C        37.2510884429       28.5302658292       11.3475923569
  C        37.8743008957       29.5409859676       10.6212732147
  C        35.7193366798       27.7388001077       13.1609215428
  C        35.7225215360       27.7350878864       14.5837629033
  C        36.4161238667       28.7254900214       15.3478675365
  C        46.1352047692       26.6206167212       15.2814817043
  C        46.0875178784       26.5800617607       12.4736190167
  C        22.4660791095        3.2540537595       10.2519744621
  C        23.1743218359        4.3593854451       10.9636539217
  C        24.1859518186        4.0670190807       11.8921959146
  C        24.8259647926        5.0935118352       12.5817231873
  C        24.4734068114        6.4402727811       12.3649109560
  C        23.4867962563        6.7261170981       11.4027503896
  C        22.8425615144        5.6999087053       10.7129295710
  C        25.1070866922        7.5336017122       13.1419731086
  C        25.0865780751        7.5269900701       14.5638621308
  C        24.3845234029        6.5297817652       15.3117620285
  C        26.5589907908       17.8253441508        21.777341396938
  C        25.2596157671       17.8863230086        21.049022717338
  C        25.0034227606       18.9065331931        20.119831111038
  C        23.7958788777       18.9377314337        19.426674563538
  C        22.8125363680       17.9521107112        19.642919691238
  C        23.0641011301       16.9543980575        20.603033106738
  C        24.2728795633       16.9182771769        21.294601569538
  C        21.5465471263       17.9487946208        18.871521023538
  C        21.5550855633       17.9484216160        17.449726987438
  C        22.7657533146       17.8450606677        16.694325401638
  C        34.4195190340       17.2153073466        21.904752217138
  C        35.7142638493       17.1459326668        21.166165844838
  C        35.9077018112       16.1726833615        20.173147679638
  C        37.0900805540       16.1423793260        19.438379882438
  C        38.1100495737       17.0854937821        19.672990476338
  C        37.9182207287       18.0388004436        20.691785084238
  C        36.7348373862       18.0731162085        21.426216467238
  C        39.3641878241       17.0843463680        18.884084782538
  C        39.3599912937       17.0897191928        17.461431220738
  C        38.1525439554       17.1986757997        16.701866625738
  C        20.3111654368       17.9667072106        16.737778864638
  C        20.3211128681       17.9377473201        19.550201120738
  C        34.4514151464       17.1875947726       10.1751147470
  C        35.7545959706       17.1161350230       10.8972993719
  C        35.9945394219       16.1081803507       11.8443372034
  C        37.1792118391       16.0972822237       12.5758252454
  C        38.1582214670       17.0897173709       12.3756872199
  C        37.9273662362       18.0720537740       11.3943461762
  C        36.7384478985       18.0908877593       10.6691690974
  C        39.4066730709       17.1077403991       13.1719439030
  C        39.3819987312       17.1003633248       14.5932688395
  C        38.1628652494       17.1999145549       15.3350615792
  C        35.0876170024       26.6579589048       15.2880353092
  C        35.1295908464       26.6669324158       12.4785308676
  C        26.5612442717       17.8271692845       10.3248147012
  C        25.2477919312       17.8822479766       11.0259133471
  C        24.9658120295       18.9235655550       11.9230459829
  C        23.7482935527       18.9559419514       12.5964164825
  C        22.7850719122       17.9489222163       12.3922229919
  C        23.0597037229       16.9319420229       11.4605270247
  C        24.2783295287       16.8962913080       10.7865391366
  C        21.5206998709       17.9403286958       13.1629479017
  C        21.5412198075       17.9441329110       14.5836667079
  C        22.7592160587       17.8440200321       15.3281124186
  C        14.0448282749       17.8321499025       10.2838623132
  C        15.3506837400       17.8975557664       11.0012894849
  C        15.6090413836       18.9136177601       11.9340798749
  C        16.8191479534       18.9417127857       12.6231558685
  C        17.8016520472       17.9565469589       12.3999791126
  C        17.5491254087       16.9656660695       11.4331816511
  C        16.3385294233       16.9332681249       10.7452838635
  C        19.0675477073       17.9449253972       13.1702417869
  C        19.0601316827       17.9475939314       14.5917128645
  C        17.8494979074       17.8469097347       15.3469770892
  C        46.8035566515       17.2183554130       10.1590533262
  C        45.5123701154       17.1542653460       10.9045912735
  C        45.3051774487       16.1716420340       11.8852297771
  C        44.1227705004       16.1492276986       12.6205017537
  C        43.1164304467       17.1097598367       12.3983909886
  C        43.3211315568       18.0725801651       11.3913738903
  C        44.5041590979       18.0984516845       10.6565455262
  C        41.8619744569       17.1141847046       13.1865676459
  C        41.8660091703       17.1015610383       14.6089887212
  C        43.0741402476       17.1945061793       15.3693491084
  C        20.3038474929       17.9633706259       15.3039472350
  C        20.2926314556       17.9205799113       12.4914774756
  C        46.7826373601       17.2304542558        21.878199762938
  C        45.4778951336       17.1198983055        21.163083963538
  C        45.2595828798       16.1156635848        20.207387768638
  C        44.0704086672       16.0812124023        19.482618463738
  C        43.0681270035       17.0478044142        19.695620895838
  C        43.2769884502       18.0222958946        20.689670231638
  C        44.4674397001       18.0629973716        21.409638025438
  C        41.8203492396       17.0621147525        18.898391349438
  C        41.8446986406       17.0736169154        17.476973071238
  C        43.0638637657       17.1789248600        16.735916826038
  C        46.1529462940       26.6370561626        16.716030100538
  C        46.1621350355       26.6560835139        19.525678634538
  C        14.0401140100       17.8288991780        21.696255127838
  C        15.3540811196       17.8997955540        20.996306631038
  C        15.6233426006       18.9241543440        20.076697509238
  C        16.8472922988       18.9636631910        19.414030995438
  C        17.8265484942       17.9777332229        19.646562514438
  C        17.5628379085       16.9791062965        20.601155664038
  C        16.3410980504       16.9394257744        21.267911121038
  C        19.0925042273       17.9627848450        18.878722840738
  C        19.0733971089       17.9557548080        17.457764044938
  C        17.8560213393       17.8505860046        16.712944731238
  C        28.8071316401       14.0809893284       10.3593231420
  C        28.2133437300       12.9019078765       11.0471542657
  C        28.9440231082       12.1811691406       12.0031927254
  C        28.3562356513       11.1037171905       12.6614800282
  C        27.0261180281       10.7258620866       12.3876450409
  C        26.3190827184       11.4276164766       11.3944959202
  C        26.9033349227       12.5046142229       10.7345901861
  C        26.3615542164        9.6443395181       13.1494680731
  C        26.3359212877        9.6717695232       14.5701813635
  C        26.8322576255       10.7852628542       15.3195490831
  C        32.1763657793       21.2425262739       10.1040712375
  C        32.7587362680       22.4074435118       10.8337965171
  C        32.0053644363       23.0627632607       11.8206617197
  C        32.5639520715       24.1032917948       12.5579547904
  C        33.8914349066       24.5176669592       12.3320742064
  C        34.6270875673       23.8773608401       11.3158821146
  C        34.0719551401       22.8318443936       10.5800124871
  C        34.5105682066       25.5975327808       13.1368417038
  C        34.4967511329       25.5729780026       14.5595139420
  C        33.9880270844       24.4590354080       15.2993364715
  C        25.7165966942        8.5950228123       15.2828812457
  C        25.7297217900        8.5938258298       12.4711718027
  C        32.0739027539       21.1955185048        21.836872061938
  C        32.6512522393       22.3647284621        21.107852028538
  C        31.9188204107       23.0160456681        20.102991534338
  C        32.4906031831       24.0599007841        19.378609126738
  C        33.8107762491       24.4809503526        19.635137695538
  C        34.5238579408       23.8443318528        20.669702435538
  C        33.9559031965       22.7983699302        21.392757666538
  C        34.4498442490       25.5649366627        18.851738438238
  C        34.4660619763       25.5564929728        17.428783079538
  C        33.9723456871       24.4515924998        16.666003373938
  C        40.6073161231       17.0691821262        16.752773921638
  C        40.5888210066       17.0862007648        19.562816981038
  C        28.6593339838       14.0610653006        21.810710646338
  C        28.0558512666       12.9167582021        21.069857388038
  C        28.8119213506       12.2054847727        20.125385905338
  C        28.2407573958       11.1506061054        19.419458845838
  C        26.8989266329       10.7798952177        19.635510451638
  C        26.1590173192       11.4768590352        20.608915242638
  C        26.7282790748       12.5338459760        21.316066016138
  C        26.2729951296        9.6870412067        18.855513173638
  C        26.2921753417        9.6937741710        17.434323452938
  C        26.8093700707       10.7967958197        16.685074937338
  C        18.1353209546        3.1808970253       10.3171208569
  C        17.4057264279        4.2780486306       11.0156831372
  C        16.3897306726        3.9994587476       11.9428165395
  C        15.7417481761        5.0392774135       12.6063273451
  C        16.0937018912        6.3830362059       12.3670101179
  C        17.0833900359        6.6528094916       11.4036439110
  C        17.7327337654        5.6156174842       10.7385760722
  C        15.4691593244        7.4906232953       13.1300714199
  C        15.4844316609        7.4899556304       14.5517897268
  C        16.1860678347        6.4963856996       15.3049368645
  C        42.9456469458       31.8594557969       10.0728185838
  C        43.6459621234       30.7716792619       10.8168013725
  C        44.5915470621       31.0930048686       11.8028006757
  C        45.1972285642       30.0874792247       12.5505207290
  C        44.8706847185       28.7344535791       12.3356821929
  C        43.9448036726       28.4200694296       11.3225461313
  C        43.3360250846       29.4252242338       10.5744819321
  C        45.4882474298       27.6551473651       13.1388779734
  C        45.4924173303       27.6807084536       14.5605743721
  C        44.8053862267       28.6888027231       15.3071878693
  C        14.8554943091        8.5624563720       15.2641733839
  C        14.8738411493        8.5623537399       12.4514864396
  C        42.9463577936       31.9616119455        21.798839616338
  C        43.6915503829       30.8853948050        21.085297821038
  C        44.6562724768       31.1913031313        20.113145064238
  C        45.2777335809       30.1717095279        19.395355531338
  C        44.9537443592       28.8214354829        19.632856331338
  C        44.0201160591       28.5237581089        20.643480656538
  C        43.3919237317       29.5405346757        21.355713689638
  C        45.5627705768       27.7240179473        18.847609527238
  C        45.5330331225       27.7172516899        17.426313139038
  C        44.8266569470       28.7074532259        16.673372955438
  C        35.0744996072       26.6480090489        16.723939060338
  C        35.0661726853       26.6214583515        19.534760732538
  C        18.1484916887        3.2468029895        21.696418756038
  C        17.4298605941        4.3436148421        20.986986692238
  C        16.4144349679        4.0522970389        20.063694351638
  C        15.7659999505        5.0828823117        19.388337907638
  C        16.1208209969        6.4281100945        19.610787894138
  C        17.1125099671        6.7115674686        20.567691186138
  C        17.7602618879        5.6826864321        21.247446263738
  C        15.4900868957        7.5237257904        18.838391663138
  C        15.4957591610        7.5070312742        17.417249429538
  C        16.1924263765        6.5052705896        16.670542747438
  H        10.6722715493       12.4661143652        19.893914837238
  H        11.6943133670       10.5512106865        18.652089858138
  H        15.3909362750       11.1675409488        20.762694028738
  H        14.3506382202       13.0703134075        22.007988220238
  H        13.3756009575       11.6307938832        17.191010417538
  H        50.3223991877       22.7482787087        19.976459566638
  H        49.3191805636       24.6226293513        18.670365506238
  H        45.6421216542       24.1616734456        20.854048961338
  H        46.6630558501       22.2907847941        22.162379047738
  H        47.6294799974       23.5757342360        17.236000219538
  H        14.8718869515        8.5879753117        20.598309482038
  H        50.2865181902       22.7021358020       12.0607701694
  H        49.2685225942       24.5749426615       13.3608548856
  H        45.6105416000       24.1098927988       11.1452276805
  H        46.6526931610       22.2546556560        9.8308477729
  H        47.6073937560       23.5516490312       14.7969056979
  H        40.6440290444       17.1155454070       11.4190378394
  H        48.6870938561       14.0950425352        23.789825669038
  H        10.6809870133       12.4671525719       12.0937653624
  H        11.6888363044       10.5250256056       13.2974600131
  H        15.3923170953       11.1572120899       11.2046489887
  H        14.3642700249       13.0857786369        9.9893138137
  H        13.3750092538       11.6216508689       14.7530966520
  H        47.9301725182       14.2181594951        9.7109078389
  H        47.7799472617       14.3738154819        22.485202335138
  H        49.0830912171       18.5524016804       10.8672107055
  H        10.4160170429       14.1342998289        7.9988089125
  H        24.4770468782        3.0252780011        19.903299863438
  H        25.6061522132        4.8836033935        18.663751386738
  H        23.2003162173        7.7489060315        20.785115592238
  H        22.0920315004        5.8813300067        22.028887410838
  H        23.8121436502        5.7748452192        17.213036737038
  H        36.3646536361       32.1942489432        19.967246681038
  H        35.2208235565       30.3808390956        18.692477982438
  H        37.4844922499       27.4390506463        20.865717155138
  H        38.6075431973       29.2656376808        22.151298223838
  H        36.9732088454       29.4631768486        17.259930574638
  H        25.6684644936        8.6151906562        20.615507655138
  H        36.4420367792       32.2489620825       12.1006130556
  H        35.3102647035       30.4410228153       13.3894322585
  H        37.4947624735       27.4886487628       11.1489240059
  H        38.6005231257       29.3087687504        9.8460012040
  H        36.9910269021       29.4829894416       14.8229879535
  H        46.1089663748       26.5875162074       11.3855854536
  H        44.6682474069       35.1161976223        23.803965571638
  H        24.4595128656        3.0271338191       12.0555744545
  H        25.6125045453        4.8615906472       13.2966703153
  H        23.2048446005        7.7623016582       11.2273173936
  H        22.0640823388        5.9161826220        9.9849444010
  H        23.8219068029        5.7724648778       14.7737151227
  H        44.9537112526       34.3899179684        9.6947245117
  H        44.9019527196       34.2068659174        22.480535671938
  H        40.6649391162       33.2083666398       10.8527420353
  H        23.1501582409        1.9578024403        8.0028862560
  H        25.7590188125       19.6718995070        19.958159084138
  H        23.5984057019       19.7335932676        18.711771101338
  H        22.3135235770       16.1857546489        20.775380393638
  H        24.4818466207       16.1361535590        22.020740235338
  H        23.7060535092       17.7332924774        17.226410572838
  H        35.1127430244       15.4548849397        19.983737784238
  H        37.2380023408       15.3788781697        18.677767233738
  H        38.6962968610       18.7762447535        20.877885235838
  H        36.5722998060       18.8248578686        22.195198850538
  H        37.2110627996       17.3135364320        17.231355663638
  H        20.3241686789       17.9615483173        20.638471972038
  H        35.2397026548       15.3412392278       12.0020385133
  H        37.3611499139       15.3136576596       13.3081589114
  H        38.6767728634       18.8444822286       11.2341065294
  H        36.5393957893       18.8671098485        9.9338733162
  H        37.2292472943       17.3133035461       14.7914524079
  H        35.1076359132       26.6905467432       11.3906044960
  H        28.5062140988       21.0986267673        23.874548308238
  H        25.7112688920       19.7007457426       12.0747934831
  H        23.5284369787       19.7645246800       13.2902116043
  H        22.3219630616       16.1485543188       11.2996996125
  H        24.5088175135       16.0999881859       10.0828203608
  H        23.6943409081       17.7325333604       14.7870746283
  H        28.9532024892       21.7363574354        9.7167988711
  H        29.1763608154       21.7142721508        22.508115195538
  H        32.2252420142       18.6716513420       10.8597074501
  H        27.3445596158       19.0658909237        8.0745718331
  H        14.8507096175       19.6746121020       12.1038010252
  H        17.0185356496       19.7336205919       13.3419143049
  H        18.2997248945       16.1986229245       11.2539231840
  H        16.1284729733       16.1558707505       10.0146088626
  H        16.9094691943       17.7325926413       14.8151711885
  H        46.0878926643       15.4382763535       12.0645418004
  H        43.9638850786       15.3785557607       13.3716012202
  H        42.5534448481       18.8231175252       11.2146642797
  H        44.6770414905       18.8562090040        9.8958513595
  H        44.0160978505       17.3120145470       14.8412797509
  H        20.2902467450       17.9392063057       11.4031269509
  H        46.0378084140       15.3760201198        20.033435028138
  H        43.9057484860       15.3013104942        18.742276400038
  H        42.5093319974       18.7739396687        20.861623818338
  H        44.6481397155       18.8346871439        22.153989288838
  H        43.9981538096       17.2832262876        17.279977987938
  H        46.1990307003       26.6827090170        20.613119790538
  H        52.7412087211       21.0626975384        8.1946313116
  H        14.8642057723       19.6828475787        19.900050394338
  H        17.0587600881       19.7612196949        18.705057328538
  H        18.3119409483       16.2116966091        20.784881609638
  H        16.1201406938       16.1580232588        21.990945393238
  H        16.9208712057       17.7391405186        17.253532154738
  H        52.3224510755       21.6736786129        22.284483239038
  H        52.0136425121       21.7027090088        9.4954799948
  H        49.0671575846       18.6076839609        21.193971621638
  H        13.2472088592       19.0165044419        23.965759023738
  H        29.9651347494       12.4870735565       12.2206455951
  H        28.9222220721       10.5439008572       13.4028493525
  H        25.2914348065       11.1444858853       11.1764957653
  H        26.3545678380       13.0688099105        9.9845976188
  H        27.2044830077       11.6530022151       14.7831005385
  H        30.9872187179       22.7285103701       12.0067633956
  H        31.9723729096       24.6097206363       13.3174823360
  H        35.6548813116       24.1851745138       11.1346091461
  H        34.6480788643       22.3155236474        9.8155074323
  H        33.6355004890       23.5874605821       14.7552035212
  H        25.7669574910        8.5752647319       11.3833946095
  H        30.9057333039       22.6806814251        19.892699965938
  H        31.9139195312       24.5641044879        18.606243199938
  H        35.5455896027       24.1563917543        20.876024600838
  H        34.5149333745       22.2862604927        22.172356475838
  H        33.6076667659       23.5742845745        17.192621732738
  H        40.5821449283       17.0543893253        20.650699450238
  H        32.5187795465       14.1392185231        8.1691956963
  H        29.8498655015       12.4875404425        19.964898307438
  H        28.8329392168       10.5951527493        18.695501263338
  H        25.1206932453       11.2008176354        20.780837920638
  H        26.1553866230       13.0888273961        22.055261232538
  H        27.1631233955       11.6733713656        17.220061798838
  H        33.2900020569       14.2338721256        22.341417490638
  H        33.4104864972       14.3668257095        9.5331711241
  H        32.1228766314       18.5419197195        21.140136245338
  H        30.1864590712       14.1365850935        8.0718946689
  H        16.1176946843        2.9629000761       12.1289472731
  H        14.9520991327        4.8197280100       13.3217181978
  H        17.3659644397        7.6857166439       11.2109052359
  H        18.5150704219        5.8184225933       10.0110864742
  H        16.7525750405        5.7390330926       14.7714000357
  H        44.8278555379       32.1400926146       11.9769272004
  H        45.9371497166       30.3412259586       13.3064140484
  H        43.6820292901       27.3780104017       11.1524952238
  H        42.5993225062       29.1899568399        9.8098755859
  H        44.2300483449       29.4365733000       14.7688639099
  H        14.8501743433        8.5455562175       11.3632657173
  H        44.8999051975       32.2339881305        19.921816938138
  H        46.0247309953       30.4129440289        18.642209231738
  H        43.7629852825       27.4840406999        20.834880900238
  H        42.6452789611       29.3177961005        22.114035891438
  H        44.2682196989       29.4703868094        17.207969955938
  H        35.0268506486       26.6327863790        20.622405149938
  H        36.6052167331       35.1339377718        8.1806775297
  H        16.1432756992        3.0127025197        19.894192700138
  H        14.9734738809        4.8559704457        18.678499584738
  H        17.3962005393        7.7470295689        20.744313512538
  H        18.5433178055        5.8931929161        21.972002773038
  H        16.7639620813        5.7550997111        17.208970240638
  H        36.2789287080       34.4819895607        22.263176672138
  H        36.3810937567       34.2090796012        9.4996766299
  H        40.5795819060       33.2022857274        21.143757130238
  H        17.4708796511        1.9471104832        23.963823705538
  H        28.7107486462       19.0818813588       12.3158918415
  H        28.7187775960       18.8045414900        19.782772434838
  H        30.7007341958       15.3367189948        19.823242232038
  H        32.5137484285       16.1588216474       12.2600701375
  H        18.8539039418        0.8690188823       12.3353338475
  H        40.5283295490       35.2289480765        19.941930618338
  H        42.3237989139       34.4189702081        19.580049387338
  H        22.0873627143        0.6922335781       12.3515948509
  H        11.5966025343       18.7128795320       12.3826182036
  H        52.2647916835       18.4313655731        19.667247982538
  H        49.2552664850       16.4763891687        19.573818070638
  H        10.1503660229       15.7982754255       12.2925732602
  H        50.8500331511       17.6926729607        19.943795260138
  H        10.0460762535       17.3947437896       12.0519161926
  H        20.2152256516        0.0020617625       12.0419227966
  H        39.1837391810       36.1242988183        19.676119293238
 Ni        30.6050474723       17.5776465097        18.984441124238
 Ni        31.4125001179       17.6470539607       14.8223908426
 Ni        30.0133119521       17.6662377616        16.492991725638
 Ni        30.6900022041       17.7194049971       12.5791203006
  O        10.6497874894       14.3652312342        21.475618034338
  O        12.6130414456       14.6574159420        22.573633013238
  O        49.1476289350       16.8459343943        23.979452408038
  O        50.3500982508       20.9362462734        21.637980765238