     572
 i =      155, E =     -4777.7001938978
  C        11.8588183759       14.0535311052       13.7363941976
  C        12.4563426704       12.8906787677       13.0180520659
  C        11.7045426297       12.1715247055       12.0766385437
  C        12.2809459754       11.1093262119       11.3843108796
  C        13.6216159025       10.7397441588       11.6118571395
  C        14.3549000002       11.4435607386       12.5850518810
  C        13.7819995837       12.5085448611       13.2765353954
  C        14.2611198971        9.6490384991       10.8385050350
  C        14.2563409504        9.6569040756        9.4168133002
  C        13.7431854147       10.7590460899        8.6629257396
  C        49.1269765450       21.2331927858       13.8745276364
  C        48.5502715313       22.4012157806       13.1474936935
  C        49.3002149773       23.0684036449       12.1663598325
  C        48.7332728102       24.1075489996       11.4331724015
  C        47.4028253050       24.5093570781       11.6619971291
  C        46.6719779583       23.8606366131       12.6756795610
  C        47.2344416631       22.8157344899       13.4050081153
  C        46.7724779266       25.5869771885       10.8647151548
  C        46.7613379267       25.5573055166        9.4429597749
  C        47.2612180433       24.4421926434        8.6994601270
  C        14.8602970714        8.5705758776        8.7035562374
  C        14.8919121427        8.5971157887       11.5151721349
  C        49.1133221356       21.2034582765        2.1504667210
  C        48.5279473715       22.3648517872        2.8776381565
  C        49.2670719552       23.0254042114        3.8707271091
  C        48.6907344160       24.0599357534        4.6022207898
  C        47.3604218295       24.4569010157        4.3637855805
  C        46.6401202808       23.8121903696        3.3400617162
  C        47.2136931940       22.7763154441        2.6082586537
  C        46.7219222325       25.5318321631        5.1548160537
  C        46.7334999649       25.5281020364        6.5765218531
  C        47.2489176981       24.4288833360        7.3329092047
  C        40.6355218368       17.1453419592        7.3248873260
  C        40.6570270720       17.1682267708        4.5159171827
  C        11.8831136427       14.0864991531        2.2906081122
  C        12.4724676866       12.9107868971        2.9948753043
  C        11.7149169191       12.1774766116        3.9208770552
  C        12.2815421497       11.0950450374        4.5892845798
  C        13.6204381384       10.7214897459        4.3575956644
  C        14.3584698978       11.4372105890        3.3969548482
  C        13.7930157610       12.5183631746        2.7242608615
  C        14.2540040044        9.6247066357        5.1279772037
  C        14.2526003271        9.6446100113        6.5498093905
  C        13.7426774967       10.7535394323        7.2968788710
  C        22.5126741995        3.2440954887       13.7483431598
  C        23.2296298090        4.3479335316       13.0494756636
  C        24.2269296338        4.0650430496       12.1044095804
  C        24.8568014951        5.1026362901       11.4222324354
  C        24.5051532736        6.4452613447       11.6651071923
  C        23.5362271261        6.7197192219       12.6474256750
  C        22.9016249538        5.6838912146       13.3280284150
  C        25.1134500578        7.5497880499       10.8888762172
  C        25.0849257795        7.5422586451        9.4674811886
  C        24.3795587650        6.5446219008        8.7221494815
  C        38.3029286126       31.9295699895       13.8442118145
  C        37.5739365120       30.8390932836       13.1351957221
  C        36.6159313876       31.1412930678       12.1555019123
  C        36.0002806487       30.1196581936       11.4377253219
  C        36.3277308172       28.7709725842       11.6786128421
  C        37.2557065563       28.4762271505       12.6950418024
  C        37.8757879988       29.4966010825       13.4112627873
  C        35.7270506445       27.6783952835       10.8812853890
  C        35.7609406228       27.6929986829        9.4600154933
  C        36.4696946691       28.6939754027        8.7234480271
  C        25.7094892775        8.6109092690        8.7470790976
  C        25.7127505441        8.6236770988       11.5591330595
  C        38.3293890762       31.9623559503        2.1615219922
  C        37.6092151296       30.8886745867        2.9042274860
  C        36.6827880538       31.1966995285        3.9121001910
  C        36.0744754843       30.1775589873        4.6422501393
  C        36.3782968261       28.8252776179        4.3874723292
  C        37.2823375938       28.5272126375        3.3496108138
  C        37.8930219828       29.5428558993        2.6210577908
  C        35.7710334857       27.7255960801        5.1712060436
  C        35.7832834874       27.7173770558        6.5931401544
  C        36.4800172645       28.7058985134        7.3569095772
  C        46.1354703530       26.6207231486        7.2866638613
  C        46.0880350669       26.5802430436        4.4787740169
  C        22.4608167753        3.2555806841        2.2627724429
  C        23.1550539174        4.3634684004        2.9860047321
  C        24.1570902146        4.0759626997        3.9264449316
  C        24.7857482629        5.1051131417        4.6229967364
  C        24.4325400099        6.4513249979        4.4016169806
  C        23.4535496285        6.7320887373        3.4297076853
  C        22.8201649258        5.7031580167        2.7336301826
  C        25.0650415926        7.5481909505        5.1757881149
  C        25.0603254916        7.5410201323        6.5985687226
  C        24.3659548460        6.5450854243        7.3555477634
  C        26.6222948547       17.8607695063       13.7774219692
  C        25.3134147787       17.9070479898       13.0533347393
  C        25.0580750502       18.8979586215       12.0924936843
  C        23.8448810834       18.9181562201       11.4064495051
  C        22.8507848706       17.9506959907       11.6590370331
  C        23.1030550059       16.9824549619       12.6491564900
  C        24.3180437555       16.9569582252       13.3327308263
  C        21.5775489751       17.9346691553       10.8946107047
  C        21.5767099685       17.9080630472        9.4721082480
  C        22.7817796977       17.7811130074        8.7112228230
  C        34.4394532873       17.1966887274       13.9184187646
  C        35.7303120399       17.1556633445       13.1669446215
  C        35.9390701284       16.1878654608       12.1719905598
  C        37.1184347174       16.1814363062       11.4321953686
  C        38.1221750285       17.1404324657       11.6702513554
  C        37.9158341654       18.0895817432       12.6889076550
  C        36.7327618719       18.1022115009       13.4243700980
  C        39.3778747545       17.1504194597       10.8866620468
  C        39.3755967442       17.1652663602        9.4654006045
  C        38.1694839553       17.2859235029        8.7056005261
  C        20.3300544909       17.9250834974        8.7636189701
  C        20.3525453927       17.9399433983       11.5767194157
  C        34.4751567360       17.2453955141        2.1860302704
  C        35.7805340688       17.1696031115        2.9064691515
  C        35.9980541919       16.1826110484        3.8791664800
  C        37.1838559618       16.1661400931        4.6081692406
  C        38.1799130142       17.1355627187        4.3820179400
  C        37.9696654070       18.0967578350        3.3761978737
  C        36.7814280864       18.1184924141        2.6508605399
  C        39.4255945216       17.1561540987        5.1788845218
  C        39.3999123680       17.1681141275        6.5995040455
  C        38.1807615012       17.2849374733        7.3390622431
  C        35.1511187851       26.6388947135        7.2965265278
  C        35.1784134448       26.6566941928        4.4873739561
  C        26.5692786579       17.8246104857        2.3297720575
  C        25.2531021223       17.8719671648        3.0348082311
  C        24.9861318965       18.8793346779        3.9742111956
  C        23.7691912560       18.9022798170        4.6500657632
  C        22.7893376538       17.9187057429        4.4082148794
  C        23.0497449765       16.9372383401        3.4349537101
  C        24.2680182840       16.9114877788        2.7587192217
  C        21.5261435997       17.8988712824        5.1819024710
  C        21.5504353313       17.8888231069        6.6033095598
  C        22.7690293903       17.7722837478        7.3449574944
  C        14.0463838521       17.8284445876        2.2943011412
  C        15.3501023437       17.8843357786        3.0202422469
  C        15.6061805205       18.8856160846        3.9700457393
  C        16.8147281804       18.9048792635        4.6636058227
  C        17.8013044000       17.9256507284        4.4295660856
  C        17.5500169844       16.9487925744        3.4475665615
  C        16.3409147067       16.9248177823        2.7556627278
  C        19.0702296017       17.9073763788        5.1984515267
  C        19.0692144089       17.9036130783        6.6208949930
  C        17.8624530664       17.8046849200        7.3825340762
  C        46.8074367264       17.2198691513        2.1643697905
  C        45.5198281631       17.1626057799        2.9126959444
  C        45.3147351454       16.1887383450        3.9019226617
  C        44.1347989152       16.1764280398        4.6405112714
  C        43.1319220048       17.1379701818        4.4101081329
  C        43.3345211314       18.0917955880        3.3948164972
  C        44.5151436250       18.1081870265        2.6576151500
  C        41.8792852274       17.1537377040        5.1973600638
  C        41.8833802528       17.1561808856        6.6187817232
  C        43.0913745606       17.2506794274        7.3790760605
  C        20.3161938057       17.9144867402        7.3287972789
  C        20.2940712535       17.8881211508        4.5156518780
  C        46.7858168142       17.2315962035       13.8847809403
  C        45.4816947484       17.1287963298       13.1708107893
  C        45.2602188914       16.1339072606       12.2067831313
  C        44.0717462183       16.1132421076       11.4811448792
  C        43.0761546427       17.0843791895       11.7030709656
  C        43.2872704524       18.0479149443       12.7066916401
  C        44.4769140500       18.0751611549       13.4270538523
  C        41.8313506722       17.1147106603       10.9047996259
  C        41.8590225301       17.1349231746        9.4841860425
  C        43.0798819474       17.2376646592        8.7454974886
  C        46.1532482630       26.6371454219        8.7212156974
  C        46.1626284515       26.6561526835       11.5308499125
  C        14.0457758362       17.8318895794       13.7037962165
  C        15.3668976206       17.9066153594       13.0139992273
  C        15.6396127570       18.9205732076       12.0835831151
  C        16.8687657803       18.9577851552       11.4290810191
  C        17.8528796208       17.9802068036       11.6791616335
  C        17.5872453296       16.9957264794       12.6482786239
  C        16.3600483027       16.9578426603       13.3061505912
  C        19.1199512604       17.9542571673       10.9099789395
  C        19.0951378875       17.9261662753        9.4886438285
  C        17.8751753691       17.8146112315        8.7485086907
  C        28.8092572450       14.0909488790        2.3975993450
  C        28.1976350532       12.9147542293        3.0833301416
  C        28.9248366680       12.1672755594        4.0213800798
  C        28.3266212881       11.0915139311        4.6728554761
  C        26.9873170465       10.7394210235        4.4098808473
  C        26.2819604040       11.4666572229        3.4344918988
  C        26.8780873132       12.5425214231        2.7813559494
  C        26.3197559108        9.6591236903        5.1717553487
  C        26.3118849077        9.6835818329        6.5928108578
  C        26.8214958618       10.7938983305        7.3383511964
  C        32.1760810091       21.2401882386        2.1499310066
  C        32.7720082333       22.4074751625        2.8684586164
  C        32.0229073671       23.0907983522        3.8385957841
  C        32.5951823458       24.1293911025        4.5672287598
  C        33.9321397195       24.5126936603        4.3458042167
  C        34.6636737154       23.8485727196        3.3433701033
  C        34.0936712110       22.8044488608        2.6170772975
  C        34.5628283449       25.5871171680        5.1463384590
  C        34.5560538249       25.5575915164        6.5678195375
  C        34.0437411443       24.4437383563        7.3053568056
  C        25.7013321063        8.6067366196        7.3124128375
  C        25.6798276601        8.6102207363        4.4989754072
  C        32.1016563422       21.2222175608       13.8763429316
  C        32.6935602436       22.3721068915       13.1282789975
  C        31.9590265907       23.0355038205       12.1334292603
  C        32.5406922437       24.0656694755       11.3976150627
  C        33.8705890862       24.4626653926       11.6389430394
  C        34.5882219149       23.8121900072       12.6608693266
  C        34.0112754400       22.7766660827       13.3916082950
  C        34.5116930148       25.5448768252       10.8565785702
  C        34.5291222653       25.5362906355        9.4348543065
  C        34.0302101429       24.4339112825        8.6718518139
  C        40.6229132667       17.1390997436        8.7588137702
  C        40.5998572555       17.1414306827       11.5683746174
  C        28.7480730612       14.0664705750       13.8158883158
  C        28.1377639560       12.9184926172       13.0770347363
  C        28.8781469420       12.2184696787       12.1124016882
  C        28.3001906914       11.1611432702       11.4133401045
  C        26.9655656126       10.7773775922       11.6543670026
  C        26.2418280229       11.4654235656       12.6460070502
  C        26.8185640713       12.5233735692       13.3466201569
  C        26.3260210261        9.6853273330       10.8815289073
  C        26.3166343094        9.6968325167        9.4596902086
  C        26.8217907259       10.8014037007        8.7042003480
  C        18.1354743820        3.1811044129        2.3222877129
  C        17.4061968986        4.2783223312        3.0208926597
  C        16.3903274065        3.9999899317        3.9482507659
  C        15.7426288026        5.0399854516        4.6117309326
  C        16.0947390396        6.3836844369        4.3722155854
  C        17.0842749335        6.6531834668        3.4086057234
  C        17.7333511314        5.6158293031        2.7435616022
  C        15.4703947713        7.4913681266        5.1352602813
  C        15.4855531719        7.4905937552        6.5569721422
  C        16.1870507504        6.4969394705        7.3101451849
  C        42.9459245996       31.8595829070        2.0780155272
  C        43.6463362584       30.7719004351        2.8219881531
  C        44.5917346293       31.0932451396        3.8081738924
  C        45.1974462969       30.0876997608        4.5558504105
  C        44.8711548341       28.7346258666        4.3408744970
  C        43.9454979106       28.4202692026        3.3275140313
  C        43.3366708967       29.4254037028        2.5794718515
  C        45.4887113858       27.6553013107        5.1440493453
  C        45.4927687882       27.6808542261        6.5657447079
  C        44.8056619938       28.6888816166        7.3123783496
  C        14.8565490779        8.5630594471        7.2693384195
  C        14.8752385053        8.5632036113        4.4566672647
  C        42.9464954028       31.9616505546       13.8038694092
  C        43.6917798830       30.8854955773       13.0903986731
  C        44.6562611612       31.1914236909       12.1180048220
  C        45.2778119741       30.1718257835       11.4003115751
  C        44.9541839448       28.8215005797       11.6380757377
  C        44.0208711537       28.5238454514       12.6490160037
  C        43.3925698629       29.5406021510       13.3611735427
  C        45.5631735490       27.7240757931       10.8528172302
  C        45.5333195743       27.7173193650        9.4315205289
  C        44.8269448883       28.7075173535        8.6785672900
  C        35.1386736444       26.6272051412        8.7312428194
  C        35.1213111322       26.6031222240       11.5411159415
  C        18.1486223699        3.2470777864       13.7014592523
  C        17.4300542099        4.3438787774       12.9921819530
  C        16.4146520298        4.0526174141       12.0688113932
  C        15.7663637964        5.0832632429       11.3934352523
  C        16.1212091073        6.4284776568       11.6160101588
  C        17.1127718826        6.7118502035       12.5730758280
  C        17.7604367517        5.6829318586       13.2528396739
  C        15.4906931749        7.5241643601       10.8435766541
  C        15.4964952124        7.5074680627        9.4224466030
  C        16.1932505736        6.5057572381        8.6757528061
  H        10.6723357857       12.4654800485       11.8997789544
  H        11.6946313203       10.5506699474       10.6579244372
  H        15.3920535687       11.1692486574       12.7665226389
  H        14.3516078160       13.0720210706       14.0116704096
  H        13.3762014930       11.6311765748        9.1962529909
  H        50.3228686878       22.7482698312       11.9815082011
  H        49.3197208214       24.6227397524       10.6755214448
  H        45.6425918740       24.1616258907       12.8590715773
  H        46.6635625053       22.2906359421       14.1672886780
  H        47.6298414831       23.5758525159        9.2411428407
  H        14.8724046624        8.5884587524       12.6034811425
  H        50.2870502551       22.7024258521        4.0657474768
  H        49.2690976108       24.5752843071        5.3658137526
  H        45.6108292464       24.1096827207        3.1507845457
  H        46.6529937126       22.2543335537        1.8364947860
  H        47.6077483920       23.5517904261        6.8020059465
  H        40.6647408184       17.1335316694        3.4282074979
  H        48.6871395994       14.0950096912       15.7949842839
  H        10.6813772529       12.4664035678        4.0981314962
  H        11.6897409824       10.5245141192        5.3018651362
  H        15.3939990922       11.1595445187        3.2112177674
  H        14.3654634001       13.0878926300        1.9959383448
  H        13.3759342268       11.6221890320        6.7582397494
  H        47.9303423682       14.2182001324        1.7160514176
  H        47.7800680645       14.3737188864       14.4901937439
  H        49.0847768451       18.5528400668        2.8727773748
  H        10.4162535380       14.1342255223        0.0037649812
  H        24.4858988732        3.0257542452       11.9147773484
  H        25.6301667479        4.8831803468       10.6893139095
  H        23.2577143015        7.7534837072       12.8412596974
  H        22.1312696309        5.8864052559       14.0680975950
  H        23.8176497383        5.7888376023        9.2631316206
  H        36.3789646667       32.1841794168       11.9585642041
  H        35.2572514654       30.3571568076       10.6795858288
  H        37.5158568900       27.4375064087       12.8879664775
  H        38.6183365804       29.2773800731       14.1748182838
  H        37.0363482675       29.4421083123        9.2701513920
  H        25.7473299911        8.6074329642       12.6469692318
  H        36.4604231985       32.2407847444        4.1205958389
  H        35.3505942763       30.4216537162        5.4166138371
  H        37.5285567842       27.4871227588        3.1463280171
  H        38.6137607394       29.3180908244        1.8386586141
  H        37.0556394790       29.4627782596        6.8318568482
  H        46.1096232913       26.5877540514        3.3907453016
  H        44.6683165295       35.1162288847       15.8088699110
  H        24.4340531762        3.0374175242        4.0928095473
  H        25.5665527852        4.8753885000        5.3448878817
  H        23.1695223472        7.7669655364        3.2498190927
  H        22.0485431618        5.9170148119        1.9976542183
  H        23.7930262105        5.7902383765        6.8248232380
  H        44.9539489979       34.3904482141        1.7002875347
  H        44.9019318765       34.2068342984       14.4856180423
  H        40.6661114032       33.2093156638        2.8583216052
  H        23.1504331321        1.9579827817        0.0104439835
  H        25.8243460742       19.6455423503       11.8995466014
  H        23.6513122528       19.6933977447       10.6680372887
  H        22.3477950189       16.2261868176       12.8533923147
  H        24.5238913832       16.1955527720       14.0815201790
  H        23.7218733556       17.6614762933        9.2418472410
  H        35.1621011514       15.4485199743       11.9919440807
  H        37.2812195979       15.4218917749       10.6705292443
  H        38.6833505202       18.8377829368       12.8762614316
  H        36.5560435114       18.8479348667       14.1961461724
  H        37.2305087305       17.4084644602        9.2376665354
  H        20.3595644866       17.9841832213       12.6644177401
  H        35.2182105419       15.4460980998        4.0586574419
  H        37.3533298896       15.3981974449        5.3598614606
  H        38.7339786103       18.8502930443        3.1975968787
  H        36.5950671978       18.8775542721        1.8947156896
  H        37.2504959113       17.4049344469        6.7912917221
  H        35.1494184033       26.6840529403        3.3997530492
  H        28.5045633030       21.0641035946       15.9618540760
  H        25.7446784280       19.6377121159        4.1548438763
  H        23.5614601490       19.6873524787        5.3739902963
  H        22.3009966334       16.1716265210        3.2420540101
  H        24.4860591309       16.1418934457        2.0220382934
  H        23.6993252564       17.6454396767        6.7992961296
  H        29.0267898126       21.7075327846        1.7508380256
  H        29.1814133763       21.7250255643       14.6300184405
  H        32.0929815989       18.5675863658        2.9948061126
  H        27.3729899724       19.0190638457        0.0823735195
  H        14.8477591210       19.6444244619        4.1492663491
  H        17.0097472219       19.6875449221        5.3936179286
  H        18.3014747087       16.1851057490        3.2576930468
  H        16.1353316021       16.1572911817        2.0133134500
  H        16.9198407737       17.6882810915        6.8556479263
  H        46.0967898833       15.4555163223        4.0845746490
  H        43.9744389911       15.4138117273        5.3994252524
  H        42.5672045244       18.8417163590        3.2142542499
  H        44.6898161043       18.8583537864        1.8899876280
  H        44.0337473074       17.3644985909        6.8508891481
  H        20.2877670814       17.9189110212        3.4275527877
  H        46.0351491490       15.3921480869       12.0272285922
  H        43.9022887097       15.3420508314       10.7328578862
  H        42.5229605052       18.8015298512       12.8845652542
  H        44.6626184436       18.8384994470       14.1785875925
  H        44.0134841264       17.3403233355        9.2910040705
  H        46.1996593420       26.6828041992       12.6182853091
  H        52.7413229340       21.0626837247        0.1998148434
  H        14.8784656990       19.6731869047       11.8899897032
  H        17.0792953049       19.7467672378       10.7102732122
  H        18.3386597522       16.2348958801       12.8493247834
  H        16.1395776448       16.1846219515       14.0380627399
  H        16.9420276558       17.7059336135        9.2930352120
  H        52.3227933210       21.6734272084       14.2891005437
  H        52.0134565573       21.7022223354        1.5007273518
  H        49.0679980845       18.6078539051       13.1988823022
  H        13.2479468356       19.0160563821       15.9723495327
  H        29.9569069260       12.4440318260        4.2248948249
  H        28.8918355378       10.5101892511        5.3982040268
  H        25.2472499537       11.2040489028        3.2238717454
  H        26.3319012893       13.1253897283        2.0436909019
  H        27.1868074883       11.6607859434        6.7961319110
  H        30.9952402632       22.7822700213        4.0152059571
  H        32.0092452701       24.6592000233        5.3152061870
  H        35.6982180972       24.1358433140        3.1666905103
  H        34.6633255401       22.2657352638        1.8632548959
  H        33.6833853567       23.5785006627        6.7564164270
  H        25.7065650465        8.5923151081        3.4108651200
  H        30.9336724040       22.7261195641       11.9445514415
  H        31.9636924828       24.5822935234       10.6336382058
  H        35.6176163231       24.1078005008       12.8529405803
  H        34.5695570087       22.2526693158       14.1639720451
  H        33.6592327689       23.5607647082        9.2008840187
  H        40.5908825872       17.1004534638       12.6559007342
  H        32.5053217320       14.1499082186        0.2659547097
  H        29.9082748741       12.5171372232       11.9311969494
  H        28.8822751308       10.6132308824       10.6753828933
  H        25.2091093358       11.1818764972       12.8385983701
  H        26.2570996328       13.0703154165       14.1004481332
  H        27.1862373583       11.6740549145        9.2382395193
  H        33.3116267067       14.2308326782       14.4666397095
  H        33.4087866851       14.4175741557        1.6031015179
  H        32.1216786605       18.5124526590       13.2261623696
  H        30.2160217663       14.1898087753        0.0859616804
  H        16.1181300576        2.9635002525        4.1345168337
  H        14.9530516688        4.8206430597        5.3272590678
  H        17.3668962865        7.6860387867        3.2156480351
  H        18.5155361679        5.8184981960        2.0158770259
  H        16.7536575010        5.7396323668        6.7766445379
  H        44.8279301119       32.1403414499        3.9824140367
  H        45.9372435580       30.3414831486        5.3118547049
  H        43.6829792421       27.3781798374        3.1572523687
  H        42.6002101151       29.1900919555        1.8146482516
  H        44.2303744561       29.4367014011        6.7740661312
  H        14.8516544270        8.5465494440        3.3684427957
  H        44.8997145408       32.2341175207       11.9264791250
  H        46.0246429281       30.4130779839       10.6470072611
  H        43.7641241357       27.4840968540       12.8407602113
  H        42.6462443094       29.3178263717       14.1197943755
  H        44.2685119278       29.4704605030        9.2131623535
  H        35.0772729149       26.6156868354       12.6285248889
  H        36.6051836531       35.1341157692        0.1856942399
  H        16.1434386783        3.0130546005       11.8992132728
  H        14.9739196329        4.8564658816       10.6834679148
  H        17.3964964392        7.7472935734       12.7497811441
  H        18.5435118419        5.8933973428       13.9773881947
  H        16.7647095964        5.7555344603        9.2141966594
  H        36.2786031079       34.4826146913       14.2679744919
  H        36.3809289273       34.2092209435        1.5047042954
  H        40.5804941997       33.2029183458       13.1482569224
  H        17.4708934468        1.9479097845       15.9690169795
  H        29.0661309865       19.3554013055        4.5603177913
  H        29.9765342034       19.6778420660       11.6103537279
  H        31.9109543573       15.7138127450       11.6441164973
  H        31.1754064915       15.5601824121        4.5328498074
  H        28.0100914791       18.1555551195        6.7843779288
  H        29.4513577814       15.2121593092        6.6167535281
  H        31.8284609317       19.8726839163        9.5117499586
  H        33.2321209011       16.8609909780        9.4632897914
  H        28.9518428252       16.6749400711        9.3960784397
  H        18.8532888184        0.8688979493        4.3403518040
  H        40.5282465428       35.2290880162       11.9468622809
  H        42.3244367711       34.4192257314       11.5849849886
  H        22.0874925164        0.6923299194        4.3566525239
  H        11.5968407895       18.7131445511        4.3877836573
  H        52.2648030591       18.4311163225       11.6719592203
  H        49.2547040407       16.4768809311       11.5795821862
  H        10.1509878834       15.7981768941        4.2976037779
  H        50.8500111797       17.6924952543       11.9490760495
  H        10.0465444110       17.3945556274        4.0570457005
  H        20.2145982863        0.0021903358        4.0470840366
  H        39.1839808441       36.1247806478       11.6813994602
  H        32.2699093952       18.4294672230        6.9035281744
 Ni        30.9871575576       17.6926261342       10.7486654485
 Ni        31.2425696867       16.2763925564        7.9980062139
 Ni        29.9689736158       18.8223745235        8.2406261850
 Ni        30.2242655077       17.5015407941        5.4103128583
  O        10.6499432155       14.3650790224       13.4807079199
  O        12.6131718913       14.6575049693       14.5787888945
  O        49.1481483759       16.8458563807       15.9845894132
  O        50.3503170304       20.9357542070       13.6428889951
  O        48.3486283335       20.5933405611       14.6607524413
  O        11.0517894992       17.0537825207       14.4956140295
  O        50.3210302298       20.8816459731        2.4119908182
  O        48.3467785501       20.5868447772        1.3322601074