     578
 i =       58, E =     -4812.1578798671
  C        11.8590159021       14.0535017116       13.7363980368
  C        12.4565147307       12.8907625436       13.0180415513
  C        11.7045837414       12.1712418835       12.0769953983
  C        12.2810181860       11.1090595121       11.3847028614
  C        13.6218695280       10.7398814029       11.6118775848
  C        14.3553885094       11.4441987458       12.5845264757
  C        13.7824487272       12.5091784382       13.2759829133
  C        14.2612798126        9.6491163722       10.8385196186
  C        14.2562645617        9.6568702437        9.4168322313
  C        13.7430421621       10.7589923885        8.6629666779
  C        49.1271611708       21.2330951728       13.8744790429
  C        48.5504677291       22.4012503411       13.1475180413
  C        49.3003460892       23.0682234681       12.1661925546
  C        48.7334683000       24.1074469443       11.4330344132
  C        47.4031457108       24.5095394724       11.6620814775
  C        46.6724448389       23.8611427786       12.6760905668
  C        47.2348375143       22.8161688343       13.4053786912
  C        46.7727452200       25.5871277182       10.8647947169
  C        46.7613708172       25.5573110796        9.4430362000
  C        47.2612960148       24.4422166969        8.6995304200
  C        14.8601575170        8.5705209055        8.7035619616
  C        14.8922897061        8.5973283544       11.5151860591
  C        49.1134278334       21.2033843222        2.1503933967
  C        48.5280494729       22.3648732433        2.8775813618
  C        49.2671010087       23.0250957417        3.8709333445
  C        48.6908439934       24.0596767823        4.6024524224
  C        47.3606804003       24.4570020879        4.3638032589
  C        46.6405398391       23.8127096623        3.3396859447
  C        47.2140237536       22.7767950380        2.6078567049
  C        46.7221569973       25.5319139817        5.1548559242
  C        46.7335351999       25.5280811363        6.5765704433
  C        47.2489959633       24.4288924395        7.3329762519
  C        40.6322523722       17.1392368898        7.3288899190
  C        40.6599648517       17.1800729671        4.5200707771
  C        11.8832734409       14.0865602352        2.2907352278
  C        12.4726893661       12.9110800196        2.9951253691
  C        11.7149732468       12.1772784850        3.9206236624
  C        12.2816716840       11.0948622596        4.5889640563
  C        13.6207932257       10.7218065599        4.3577230243
  C        14.3590804526       11.4381217325        3.3977347213
  C        13.7935470283       12.5192567933        2.7250807373
  C        14.2542662356        9.6249067036        5.1280238986
  C        14.2525562423        9.6446317275        6.5498505504
  C        13.7425629799       10.7535198017        7.2969259932
  C        22.5126722256        3.2464604393       13.7463149076
  C        23.2261324972        4.3520203253       13.0450800316
  C        24.2207140033        4.0727133660       12.0957584994
  C        24.8468624253        5.1122682901       11.4124428157
  C        24.4950175824        6.4549456886       11.6567524977
  C        23.5286603481        6.7255721645       12.6431268878
  C        22.8979342008        5.6879220797       13.3251786611
  C        25.1001237495        7.5620100112       10.8796252885
  C        25.0734308450        7.5544761582        9.4575892943
  C        24.3744314825        6.5533407674        8.7110824809
  C        38.3036602727       31.9315435693       13.8455178735
  C        37.5751515789       30.8412009359       13.1371774972
  C        36.6130207553       31.1435082310       12.1619431862
  C        35.9982224144       30.1216222212       11.4443904631
  C        36.3322995865       28.7741856692       11.6816355164
  C        37.2646494951       28.4790373977       12.6935279720
  C        37.8831938624       29.4996765907       13.4099743931
  C        35.7324690256       27.6821547193       10.8848765460
  C        35.7596759535       27.7007630053        9.4638763148
  C        36.4642439492       28.7042361821        8.7267043514
  C        25.6945869411        8.6254916225        8.7369396321
  C        25.6971701812        8.6380501288       11.5489823993
  C        38.3289238233       31.9638044073        2.1612359032
  C        37.6044335350       30.8934483595        2.9051102452
  C        36.6790735275       31.2086962035        3.9117612259
  C        36.0643139130       30.1947444960        4.6435987974
  C        36.3603865895       28.8406379697        4.3908136886
  C        37.2637999409       28.5352157131        3.3545790329
  C        37.8813174457       29.5459141462        2.6246284573
  C        35.7470735712       27.7451461410        5.1758112740
  C        35.7670299639       27.7332914194        6.5976236143
  C        36.4684217831       28.7193941839        7.3601690727
  C        46.1354130489       26.6206587213        7.2867211179
  C        46.0884267015       26.5804320120        4.4788243472
  C        22.4626096572        3.2562306960        2.2619594710
  C        23.1598134610        4.3641234942        2.9817981293
  C        24.1639082447        4.0773359282        3.9204308583
  C        24.7950152318        5.1071124106        4.6139666855
  C        24.4422919295        6.4533617415        4.3918573830
  C        23.4616353734        6.7332853558        3.4213362876
  C        22.8259429809        5.7039053259        2.7280135201
  C        25.0734646050        7.5515468179        5.1656165028
  C        25.0608708100        7.5480895107        6.5882955971
  C        24.3665469532        6.5515093877        7.3443173107
  C        26.6229520391       17.8616405067       13.7825963819
  C        25.3151729068       17.9018835303       13.0577681844
  C        25.0641165224       18.8830057887       12.0855620196
  C        23.8513993516       18.9003812293       11.3988859951
  C        22.8532823818       17.9394593891       11.6609151801
  C        23.1017562218       16.9807668308       12.6614692388
  C        24.3161300187       16.9580771174       13.3463105625
  C        21.5799336864       17.9215703475       10.8964033560
  C        21.5790493874       17.8897962142        9.4737938479
  C        22.7832165671       17.7524918521        8.7136440968
  C        34.4203910990       17.2237040724       13.9074569283
  C        35.7102307473       17.1601778794       13.1574669614
  C        35.9127885662       16.1870061919       12.1658569611
  C        37.0949511344       16.1674143141       11.4293179657
  C        38.1080879633       17.1172600645       11.6679108983
  C        37.9074450266       18.0695031307       12.6849538933
  C        36.7226160471       18.0958377720       13.4166204284
  C        39.3666300809       17.1203965058       10.8877720991
  C        39.3673849018       17.1435447404        9.4666662613
  C        38.1634455787       17.2719192375        8.7047030197
  C        20.3323950081       17.9108806780        8.7651123646
  C        20.3546136612       17.9317507109       11.5781973769
  C        34.4781382415       17.2487117091        2.1829073610
  C        35.7837346448       17.1781309068        2.9034617552
  C        36.0008588691       16.1919273690        3.8770638678
  C        37.1864244815       16.1757867490        4.6060464291
  C        38.1824703118       17.1455533803        4.3808695218
  C        37.9723351145       18.1066387272        3.3748164191
  C        36.7843921331       18.1274760730        2.6484599434
  C        39.4268861694       17.1647868452        5.1800141289
  C        39.3983233573       17.1679786469        6.6007713775
  C        38.1776699638       17.2815511073        7.3382808424
  C        35.1373488599       26.6537268388        7.3016903730
  C        35.1435235326       26.6821516960        4.4929674537
  C        26.5855644200       17.7918014043        2.3658577809
  C        25.2688087104       17.8441156190        3.0628352494
  C        25.0099721069       18.8382319280        4.0181267268
  C        23.7859169687       18.8690296271        4.6796632455
  C        22.7945895159       17.9034751286        4.4135004902
  C        23.0485249344       16.9352614527        3.4249857722
  C        24.2714014277       16.9044270772        2.7583477081
  C        21.5296775751       17.8839782365        5.1837566602
  C        21.5533507792       17.8678142161        6.6055299867
  C        22.7708250839       17.7407005712        7.3473994552
  C        14.0476482323       17.8283218948        2.2946962261
  C        15.3515698973       17.8833020664        3.0202563232
  C        15.6086010206       18.8825274480        3.9721860294
  C        16.8174715386       18.9000846178        4.6654827228
  C        17.8043176228       17.9212932585        4.4296918369
  C        17.5521085439       16.9468730179        3.4452644921
  C        16.3427872650       16.9245113289        2.7535739086
  C        19.0733393503       17.8997586514        5.1990186933
  C        19.0720047873       17.8938334794        6.6216650871
  C        17.8649783263       17.7980028739        7.3832133525
  C        46.8078905394       17.2211113250        2.1654718452
  C        45.5211304446       17.1667967813        2.9168169505
  C        45.3151024713       16.1929341398        3.9057915002
  C        44.1360514261       16.1826006796        4.6461187835
  C        43.1347685118       17.1463420999        4.4179110170
  C        43.3388388056       18.1011632937        3.4037582853
  C        44.5185120835       18.1153843996        2.6648046791
  C        41.8809684156       17.1610787839        5.2039715352
  C        41.8816795468       17.1550172878        6.6255621706
  C        43.0878281970       17.2451337950        7.3892010550
  C        20.3188087875       17.8991049455        7.3301917297
  C        20.2976738366       17.8793815150        4.5168400752
  C        46.7834238118       17.2298344305       13.8860991597
  C        45.4762982189       17.1203497707       13.1755877631
  C        45.2565160129       16.1227853284       12.2137200415
  C        44.0664959534       16.0949744280       11.4902338892
  C        43.0661130238       17.0612297096       11.7122035663
  C        43.2751307545       18.0267808586       12.7145516765
  C        44.4666679125       18.0613495206       13.4324292050
  C        41.8210907068       17.0875229372       10.9121224986
  C        41.8511984938       17.1153186991        9.4912500581
  C        43.0734290270       17.2239656569        8.7554986638
  C        46.1531890514       26.6370996056        8.7212828702
  C        46.1629784950       26.6563708161       11.5309065172
  C        14.0465368823       17.8319706668       13.7036671806
  C        15.3677344059       17.9060219943       13.0145927635
  C        15.6413589415       18.9182082219       12.0823756161
  C        16.8708238177       18.9538214460       11.4283086426
  C        17.8548222612       17.9764552519       11.6802700974
  C        17.5883060574       16.9941422591       12.6514594866
  C        16.3609322445       16.9577968099       13.3089940501
  C        19.1219857267       17.9475066761       10.9112421564
  C        19.0973429725       17.9173817496        9.4898348654
  C        17.8773980605       17.8085625023        8.7492576885
  C        28.8088576137       14.0840499731        2.3641216186
  C        28.2030303210       12.9117752759        3.0576823390
  C        28.9174392612       12.1980434010        4.0307383812
  C        28.3206633062       11.1250505623        4.6879310861
  C        26.9947100273       10.7434663580        4.3984053587
  C        26.3022884159       11.4397976586        3.3913149952
  C        26.8968577859       12.5122207829        2.7319058064
  C        26.3241793836        9.6659752550        5.1619550476
  C        26.3020199034        9.6971977716        6.5830525632
  C        26.7941809397       10.8158150549        7.3272162852
  C        32.1548791484       21.2668616469        2.1539953836
  C        32.7386410315       22.4363149725        2.8770374719
  C        31.9921777997       23.1038794215        3.8605705349
  C        32.5634200696       24.1431285622        4.5901215472
  C        33.8942353816       24.5409124648        4.3547636521
  C        34.6204598712       23.8921704948        3.3389768219
  C        34.0526313920       22.8483777347        2.6122452261
  C        34.5292520579       25.6126607495        5.1533412175
  C        34.5358333566       25.5757868299        6.5740182309
  C        34.0330376833       24.4573156295        7.3110652249
  C        25.6930963506        8.6186659528        7.3022271946
  C        25.6920883765        8.6115497973        4.4893439243
  C        32.1070905634       21.2333884657       13.8852243038
  C        32.7032604988       22.3808935510       13.1382884238
  C        31.9680711972       23.0459883496       12.1449048747
  C        32.5508483714       24.0728945069       11.4062053529
  C        33.8824414989       24.4655585049       11.6445092648
  C        34.6010930014       23.8139652754       12.6648878246
  C        34.0230347843       22.7805177898       13.3977777593
  C        34.5215321731       25.5475039508       10.8615188308
  C        34.5306997309       25.5429504507        9.4400278697
  C        34.0296595646       24.4415508802        8.6773116502
  C        40.6165897792       17.1224160325        8.7629323003
  C        40.5874400124       17.1081687363       11.5724989204
  C        28.7229037314       14.0995887708       13.7756814074
  C        28.1201176853       12.9493671916       13.0419417036
  C        28.8463897637       12.2691734594       12.0522704458
  C        28.2686361487       11.2045138102       11.3651664238
  C        26.9479724705       10.7950525501       11.6393574124
  C        26.2395967005       11.4638593594       12.6557150911
  C        26.8159756585       12.5271144324       13.3468164663
  C        26.3063868267        9.7022247471       10.8705345990
  C        26.2940117789        9.7161895995        9.4483969286
  C        26.7876242015       10.8259364406        8.6927815619
  C        18.1355428510        3.1812992192        2.3223125988
  C        17.4064451008        4.2784894287        3.0209701567
  C        16.3901697479        4.0002352885        3.9479352344
  C        15.7425263438        5.0402774017        4.6113785911
  C        16.0950748298        6.3839393431        4.3722293582
  C        17.0851176226        6.6533849337        3.4091290237
  C        17.7341409086        5.6159789495        2.7441062737
  C        15.4706475868        7.4915920793        5.1352645434
  C        15.4855162579        7.4906303773        6.5569766277
  C        16.1869679892        6.4969332141        7.3101314112
  C        42.9460106897       31.8597455392        2.0780522592
  C        43.6465112604       30.7720110009        2.8220237189
  C        44.5916059876       31.0933946906        3.8084683216
  C        45.1973819066       30.0878742816        4.5561498110
  C        44.8714400504       28.7347633265        4.3409039134
  C        43.9462004466       28.4203669400        3.3271687543
  C        43.3373131117       29.4254855586        2.5791519129
  C        45.4889405073       27.6554123128        5.1440887486
  C        45.4927536997       27.6808147175        6.5657914881
  C        44.8055592467       28.6887850418        7.3124272448
  C        14.8564328803        8.5630361360        7.2693546628
  C        14.8756917458        8.5635421619        4.4566826065
  C        42.9465225440       31.9619050606       13.8039241539
  C        43.6919393145       30.8856764694       13.0904954290
  C        44.6560394786       31.1915998274       12.1177419703
  C        45.2776431556       30.1720141661       11.4000428103
  C        44.9544086554       28.8216616735       11.6381479821
  C        44.0215861095       28.5239988194       12.6495449577
  C        43.3932764025       29.5407608716       13.3617007837
  C        45.5633332172       27.7241980630       10.8528843847
  C        45.5332613603       27.7172850220        9.4315851586
  C        44.8268065736       28.7074138692        8.6786153148
  C        35.1343573534       26.6367038230        8.7359531158
  C        35.1326765841       26.6046175102       11.5456506126
  C        18.1487247811        3.2472654821       13.7013913925
  C        17.4303080004        4.3440132530       12.9920763787
  C        16.4146164619        4.0527909944       12.0689943566
  C        15.7663417887        5.0834569286       11.3936680433
  C        16.1215071016        6.4286420111       11.6159617028
  C        17.1135117908        6.7119801238       12.5725775401
  C        17.7611788526        5.6830399331       13.2523045605
  C        15.4908644817        7.5242817130       10.8435589430
  C        15.4964333955        7.5074515372        9.4224312649
  C        16.1931670307        6.5057267257        8.6757358738
  H        10.6722497861       12.4648889421       11.9004305268
  H        11.6946558372       10.5500970690       10.6585969867
  H        15.3927527559       11.1703808183       12.7655420621
  H        14.3523215761       13.0730581863       14.0105991789
  H        13.3762247812       11.6311886817        9.1962949059
  H        50.3229231763       22.7479005740       11.9811684111
  H        49.3199197106       24.6224678585       10.6752591943
  H        45.6432294516       24.1625291124       12.8597945666
  H        46.6641343143       22.2913309437       14.1679764324
  H        47.6301600481       23.5759821962        9.2412204262
  H        14.8731327590        8.5888526247       12.6035038567
  H        50.2869857762       22.7018758062        4.0661232228
  H        49.2692227382       24.5747919324        5.3662002102
  H        45.6114396836       24.1106514694        3.1500810878
  H        46.6535261838       22.2551859047        1.8356862330
  H        47.6080360367       23.5518794508        6.8020824698
  H        40.6702018434       17.1508259749        3.4322333010
  H        48.6873377932       14.0951798345       15.7949745481
  H        10.6812842371       12.4658332363        4.0975506439
  H        11.6898230554       10.5239496118        5.3011916499
  H        15.3948652816       11.1610564948        3.2125366946
  H        14.3662879855       13.0893040410        1.9973960722
  H        13.3759944094       11.6222484882        6.7583015266
  H        47.9303787138       14.2187077570        1.7161034190
  H        47.7802486222       14.3748812067       14.4905200790
  H        49.0857054185       18.5531965727        2.8729283291
  H        10.4167339688       14.1342809857        0.0038203421
  H        24.4813534225        3.0342891394       11.9035620646
  H        25.6181407239        4.8938255296       10.6770219281
  H        23.2485639152        7.7584542150       12.8394960641
  H        22.1300979546        5.8895676558       14.0681265531
  H        23.8131972052        5.7962062051        9.2508557424
  H        36.3725847675       32.1862565927       11.9686426273
  H        35.2513449624       30.3574955014       10.6895493574
  H        37.5289503293       27.4406096851       12.8822156780
  H        38.6293525614       29.2823031042       14.1704799024
  H        37.0328491345       29.4513073677        9.2728246230
  H        25.7344275000        8.6207941301       12.6367631885
  H        36.4628487266       32.2545081881        4.1178903018
  H        35.3414315831       30.4444768985        5.4171146990
  H        37.5040315774       27.4932712216        3.1536631939
  H        38.6015972944       29.3158023544        1.8432971315
  H        37.0414697754       29.4774903125        6.8340575270
  H        46.1103379374       26.5881351543        3.3908001710
  H        44.6684433983       35.1164150374       15.8088931798
  H        24.4403882200        3.0388575939        4.0880189518
  H        25.5768056575        4.8778299484        5.3349440345
  H        23.1780409426        7.7681643438        3.2407807224
  H        22.0530293920        5.9176339714        1.9933647410
  H        23.7986309393        5.7934560077        6.8127667609
  H        44.9542373101       34.3906856883        1.7004505598
  H        44.9019821659       34.2069497717       14.4856030433
  H        40.6668387082       33.2101072888        2.8586475804
  H        23.1503751969        1.9588994884        0.0096122516
  H        25.8336083109       19.6243629217       11.8820437576
  H        23.6628557160       19.6673398352       10.6506556556
  H        22.3439332248       16.2291726688       12.8732615397
  H        24.5175209189       16.2037741821       14.1034167345
  H        23.7231965500       17.6258674166        9.2428489084
  H        35.1321134232       15.4492757751       11.9915993396
  H        37.2535734160       15.4036624042       10.6708949668
  H        38.6817975233       18.8102675225       12.8736618953
  H        36.5518603926       18.8445286667       14.1868414879
  H        37.2233358938       17.3942537914        9.2346033444
  H        20.3614090699       17.9791392136       12.6657804296
  H        35.2199908025       15.4568621084        4.0579204383
  H        37.3555377666       15.4080788759        5.3579908793
  H        38.7361936880       18.8607523876        3.1966101066
  H        36.5986847326       18.8864609462        1.8920798217
  H        37.2486188602       17.4082240172        6.7898898386
  H        35.1067545320       26.7135540609        3.4057027710
  H        28.5091465717       21.0823508031       15.9847077148
  H        25.7799751251       19.5768856903        4.2284732589
  H        23.5847407960       19.6437752471        5.4162556167
  H        22.2916451721       16.1826367612        3.2138852600
  H        24.4839591865       16.1449496355        2.0098019442
  H        23.7015767174       17.6045287029        6.8046788565
  H        28.9639987244       21.7227204349        1.7963891077
  H        29.1558645063       21.7486243215       14.6258587840
  H        32.1089540265       18.5267181027        2.9990895610
  H        27.3926930363       19.0663723243        0.0967818023
  H        14.8506636160       19.6413328862        4.1535320918
  H        17.0125889441       19.6813524042        5.3969705250
  H        18.3032906167       16.1834092139        3.2533782745
  H        16.1374055500       16.1583950414        2.0097144574
  H        16.9220183886       17.6840328808        6.8564090868
  H        46.0956496977       15.4576483350        4.0866570056
  H        43.9750790761       15.4191242300        5.4040361095
  H        42.5733353490       18.8533703142        3.2249653288
  H        44.6939774210       18.8660352896        1.8978103852
  H        44.0312961680       17.3626291140        6.8636969124
  H        20.2920609166       17.9142433667        3.4288430179
  H        46.0346522032       15.3846242007       12.0331049129
  H        43.9003838348       15.3219510152       10.7430499249
  H        42.5079527206       18.7773220317       12.8932057686
  H        44.6497780991       18.8270784116       14.1822657717
  H        44.0058052948       17.3239741703        9.3035620187
  H        46.2003506876       26.6832195547       12.6183277452
  H        52.7416002628       21.0628209020        0.1998695603
  H        14.8806705871       19.6707912297       11.8868437454
  H        17.0818260198       19.7415079955       10.7082211346
  H        18.3394620773       16.2335528406       12.8543731763
  H        16.1403135597       16.1859196124       14.0422543137
  H        16.9437292794       17.7025187347        9.2933813662
  H        52.3237119664       21.6736943740       14.2886832978
  H        52.0140699650       21.7026986608        1.5008470350
  H        49.0682263923       18.6075714892       13.1985784570
  H        13.2483405456       19.0155299348       15.9724932043
  H        29.9346897037       12.5040625738        4.2637986154
  H        28.8763771786       10.5721682557        5.4420675672
  H        25.2772015877       11.1570879127        3.1608596888
  H        26.3583024153       13.0717804048        1.9711104661
  H        27.1523908769       11.6878980436        6.7881890303
  H        30.9664761718       22.7890004928        4.0425881558
  H        31.9803679824       24.6638964006        5.3467999600
  H        35.6498300645       24.1915924936        3.1526393488
  H        34.6174408837       22.3204779523        1.8473253702
  H        33.6731584115       23.5927189443        6.7611289309
  H        25.7272759718        8.5886164395        3.4015618774
  H        30.9402988973       22.7424689711       11.9597229811
  H        31.9732355625       24.5909562396       10.6436527674
  H        35.6317153336       24.1071732473       12.8540754672
  H        34.5817757012       22.2548877111       14.1687086511
  H        33.6664165685       23.5649269667        9.2059746083
  H        40.5762882141       17.0630423950       12.6598886261
  H        32.5143318294       14.1493041916        0.2648264849
  H        29.8648060245       12.5839491232       11.8362229660
  H        28.8407561793       10.6750255944       10.6065895561
  H        25.2171228117       11.1623193331       12.8737211498
  H        26.2652744509       13.0585510259       14.1193332157
  H        27.1403537668       11.7062087751        9.2218739245
  H        33.2896584964       14.1912802300       14.4230870871
  H        33.4108857057       14.4199002745        1.6026800421
  H        32.1411097594       18.5884674494       13.2084527261
  H        30.2240380554       14.1936973507        0.0665672386
  H        16.1176347544        2.9637903450        4.1339346409
  H        14.9526833955        4.8210461808        5.3266457786
  H        17.3682950383        7.6861731227        3.2166297451
  H        18.5167964869        5.8186592215        2.0169296702
  H        16.7537384845        5.7397523176        6.7766339334
  H        44.8275366018       32.1405248300        3.9828980630
  H        45.9369702627       30.3417456451        5.3123308675
  H        43.6841301689       27.3782185348        3.1565870526
  H        42.6012030413       29.1901877263        1.8139890220
  H        44.2303781007       29.4366710852        6.7741007419
  H        14.8525081438        8.5471387800        3.3684475090
  H        44.8992073408       32.2343134996       11.9259582139
  H        46.0242311228       30.4133392154       10.6465163624
  H        43.7653422648       27.4842049517       12.8417088954
  H        42.6474009970       29.3180310337       14.1207769023
  H        44.2684596029       29.4704169921        9.2132032496
  H        35.0935635404       26.6152945824       12.6332319110
  H        36.6052878433       35.1343996648        0.1856165744
  H        16.1431391861        3.0132650965       11.8996322346
  H        14.9736726455        4.8567493320       10.6839270151
  H        17.3976657365        7.7473693065       12.7489051606
  H        18.5446528115        5.8935278312       13.9764130977
  H        16.7647718918        5.7556100041        9.2141640097
  H        36.2787570571       34.4829210818       14.2677876198
  H        36.3813939893       34.2091485154        1.5043407760
  H        40.5814647663       33.2038685750       13.1480531491
  H        17.4710261932        1.9483720686       15.9690432663
  H        28.8164947057       18.8810912532        4.3976243060
  H        29.7393858875       19.9896437497       11.7157859924
  H        32.1676735263       16.3235783928       10.7281075277
  H        31.3584698862       15.4862359175        4.4927110479
  H        28.3389470875       17.3590355368        6.9163172625
  H        31.9552969840       13.5916440330        8.1030459479
  H        31.5145118057       20.1825568314        9.5159198729
  H        33.4501802996       16.7930579717        9.8586158448
  H        29.0009496762       16.7242543954        9.3502353326
  H        18.8541172810        0.8692468021        4.3404824136
  H        40.5279957855       35.2289830023       11.9467218500
  H        42.3259713520       34.4208341072       11.5842961358
  H        22.0875241728        0.6922699774        4.3569142940
  H        11.5968819859       18.7127675353        4.3877415230
  H        52.2653322822       18.4314438373       11.6721926758
  H        49.2549380982       16.4768148373       11.5792228708
  H        10.1504961489       15.7983247487        4.2976952021
  H        50.8506341358       17.6926967229       11.9489171332
  H        10.0464162095       17.3946962931        4.0569165918
  H        20.2155128120        0.0024399353        4.0469734245
  H        39.1839580270       36.1245969998       11.6812654670
  H        32.3547912941       18.4031460828        6.7899256098
 Ni        30.6470585341       18.0398388064       10.8257069764
 Ni        31.1973768496       16.2090602708        8.0749184202
 Ni        30.0134506397       18.9392254569        7.8283110496
 Ni        30.2715658039       17.2279042740        5.4134373722
  O        10.6500159134       14.3651773090       13.4807651196
  O        12.6131862480       14.6575180521       14.5788169373
  O        49.1479300298       16.8457723593       15.9844660473
  O        50.3503529130       20.9356628091       13.6427824506
  O        48.3485916356       20.5933211951       14.6607280068
  O        11.0519948471       17.0536962027       14.4957284043
  O        50.3210008700       20.8816123471        2.4120070672
  O        48.3467360856       20.5867326281        1.3322186297