     578
 i =      115, E =     -4812.1814557829
  C        11.8589097449       14.0534889730       13.7364223005
  C        12.4564030954       12.8906383195       13.0181272406
  C        11.7046348308       12.1715401732       12.0766490067
  C        12.2810388120       11.1093558676       11.3843247582
  C        13.6217005744       10.7397497382       11.6118981414
  C        14.3549815303       11.4435620053       12.5850990381
  C        13.7820729935       12.5085403769       13.2765863168
  C        14.2611719511        9.6490495703       10.8385189880
  C        14.2563354923        9.6569122188        9.4168292960
  C        13.7432168733       10.7590676444        8.6629412230
  C        49.1270036631       21.2331715706       13.8745478361
  C        48.5502759960       22.4012046699       13.1475281987
  C        49.3002102175       23.0683428508       12.1663384056
  C        48.7332773563       24.1075032620       11.4331561297
  C        47.4028398004       24.5093631503       11.6619955443
  C        46.6720252994       23.8607246384       12.6757616039
  C        47.2344746128       22.8158088292       13.4050928864
  C        46.7725239175       25.5870056661       10.8647203058
  C        46.7613933424       25.5573211074        9.4429614580
  C        47.2613344772       24.4422379588        8.6994534495
  C        14.8602436289        8.5705634153        8.7035630883
  C        14.8920172665        8.5971533892       11.5151709451
  C        49.1133671036       21.2034818397        2.1504776767
  C        48.5280126717       22.3649048112        2.8776128312
  C        49.2671098118       23.0253329383        3.8708096127
  C        48.6907916128       24.0599011361        4.6022708689
  C        47.3605200650       24.4569899537        4.3637574362
  C        46.6402918898       23.8124206134        3.3398820987
  C        47.2138301392       22.7765109818        2.6080958895
  C        46.7220085357       25.5318955777        5.1548097157
  C        46.7336016511       25.5281500381        6.5765163582
  C        47.2490480825       24.4289398178        7.3329006562
  C        40.6335544510       17.1251218230        7.3308215427
  C        40.6514072410       17.1626266230        4.5217220389
  C        11.8831460833       14.0864988282        2.2906143075
  C        12.4724869441       12.9108438759        2.9949179750
  C        11.7149412489       12.1775497545        3.9209367831
  C        12.2815665408       11.0951308614        4.5893427529
  C        13.6204384417       10.7215054523        4.3576016550
  C        14.3584647632       11.4372112478        3.3969460487
  C        13.7930083781       12.5183631923        2.7242501412
  C        14.2539852383        9.6247165645        5.1279859767
  C        14.2525417516        9.6446054648        6.5498198859
  C        13.7426979096       10.7535642677        7.2968985575
  C        22.5128357285        3.2439874373       13.7484451395
  C        23.2302744465        4.3473599679       13.0497909662
  C        24.2268897118        4.0637274814       12.1042164174
  C        24.8573145284        5.1008677928       11.4219970007
  C        24.5068825436        6.4437356187       11.6652618540
  C        23.5386924208        6.7188678212       12.6481257744
  C        22.9035125947        5.6835057015       13.3288268546
  C        25.1156345299        7.5478728890       10.8890513451
  C        25.0872378580        7.5403550632        9.4676959756
  C        24.3816457241        6.5429611705        8.7222711261
  C        38.3033673806       31.9295653430       13.8438523296
  C        37.5755934010       30.8390009694       13.1339200345
  C        36.6185563057       31.1408725960       12.1531900096
  C        36.0041589985       30.1190087644       11.4346626847
  C        36.3318385284       28.7704364090       11.6759335235
  C        37.2589888415       28.4760579617       12.6932347880
  C        37.8778153026       29.4966212861       13.4101725513
  C        35.7319419202       27.6773662466       10.8788448675
  C        35.7650628196       27.6914724433        9.4576182502
  C        36.4726948673       28.6927832281        8.7205283955
  C        25.7117893381        8.6091086309        8.7474628291
  C        25.7151361996        8.6214994013       11.5594465764
  C        38.3291974140       31.9623182345        2.1611692798
  C        37.6087168139       30.8882552171        2.9029308102
  C        36.6825719143       31.1954199770        3.9113091212
  C        36.0747106818       30.1756137088        4.6408980077
  C        36.3787022979       28.8235190568        4.3851547701
  C        37.2821396624       28.5263982442        3.3465018222
  C        37.8923084096       29.5426565965        2.6184305945
  C        35.7730281633       27.7231859424        5.1691243198
  C        35.7859426222       27.7149776196        6.5910057386
  C        36.4822973482       28.7043021026        7.3540290705
  C        46.1355098476       26.6207325646        7.2866663495
  C        46.0880999230       26.5803005373        4.4787735825
  C        22.4610809162        3.2556561375        2.2626930012
  C        23.1556661012        4.3633457996        2.9856874103
  C        24.1570538803        4.0756175302        3.9267911989
  C        24.7858339569        5.1046271059        4.6234032048
  C        24.4334734308        6.4510348517        4.4015762056
  C        23.4553185103        6.7319556094        3.4288263615
  C        22.8218176145        5.7031871157        2.7326390379
  C        25.0657892865        7.5477716515        5.1759734116
  C        25.0620084586        7.5398066401        6.5987558287
  C        24.3679043586        6.5436346568        7.3556798879
  C        26.6202009735       17.8601225407       13.7792773097
  C        25.3109669249       17.9061448313       13.0557351864
  C        25.0580503687       18.8953673391       12.0925964086
  C        23.8452405955       18.9163993224       11.4060919275
  C        22.8495839375       17.9508797122       11.6597726593
  C        23.0997192029       16.9840330094       12.6518173827
  C        24.3142305210       16.9580016696       13.3363291854
  C        21.5768501746       17.9355879614       10.8946282015
  C        21.5763244630       17.9101876871        9.4720054900
  C        22.7815250127       17.7834613048        8.7113843942
  C        34.4399389163       17.1932886365       13.9188743063
  C        35.7337706260       17.1439861417       13.1737599271
  C        35.9390689077       16.1727826024       12.1818074918
  C        37.1188656761       16.1590480944       11.4437326375
  C        38.1256024569       17.1146818170       11.6799929469
  C        37.9235748696       18.0666666637       12.6968828503
  C        36.7399656111       18.0862975997       13.4310957606
  C        39.3792720555       17.1219067068       10.8940281196
  C        39.3744066052       17.1346249539        9.4727575012
  C        38.1659153446       17.2484687844        8.7155789273
  C        20.3298227600       17.9280866528        8.7632179263
  C        20.3516375907       17.9404457913       11.5763285381
  C        34.4726021056       17.2478656816        2.1862590067
  C        35.7735953575       17.1760865639        2.9176075538
  C        35.9966615191       16.1744450968        3.8753284415
  C        37.1818483606       16.1535847719        4.6058995562
  C        38.1729680978       17.1329238934        4.3952931891
  C        37.9555359825       18.1092646011        3.4069445353
  C        36.7677051072       18.1351697611        2.6801903436
  C        39.4214749610       17.1457623673        5.1876777452
  C        39.3968428490       17.1479779384        6.6078359358
  C        38.1782525710       17.2542769795        7.3493260881
  C        35.1551788250       26.6359462434        7.2948927127
  C        35.1814849207       26.6533973945        4.4859229163
  C        26.5708587160       17.8227064916        2.3323081715
  C        25.2547984355       17.8726304295        3.0368001625
  C        24.9906388850       18.8765587841        3.9804243652
  C        23.7729569123       18.9014874726        4.6545533601
  C        22.7898557043       17.9224845782        4.4079916972
  C        23.0476274304       16.9441773150        3.4306910665
  C        24.2662342893       16.9170594571        2.7553659995
  C        21.5267640750       17.9029260222        5.1816440431
  C        21.5508614352       17.8925072899        6.6031953082
  C        22.7692617795       17.7752496725        7.3450895246
  C        14.0467241558       17.8288179791        2.2940838053
  C        15.3505225923       17.8856003455        3.0194977189
  C        15.6060503934       18.8871579716        3.9692235005
  C        16.8146238761       18.9073037562        4.6626481547
  C        17.8019935977       17.9288412659        4.4285869218
  C        17.5512897753       16.9518517617        3.4465221414
  C        16.3421560003       16.9269531526        2.7546952758
  C        19.0707626314       17.9111238983        5.1977141661
  C        19.0694668064       17.9074911922        6.6201802670
  C        17.8625389005       17.8085525898        7.3815178048
  C        46.8061814204       17.2198331322        2.1647869668
  C        45.5176942120       17.1614125506        2.9133730618
  C        45.3132495883       16.1873610454        3.9027313833
  C        44.1330966836       16.1729482572        4.6412903543
  C        43.1279374653       17.1326655823        4.4119253135
  C        43.3299696448       18.0867837575        3.3965116144
  C        44.5108954560       18.1051539659        2.6591181742
  C        41.8753692351       17.1452398396        5.2007589840
  C        41.8805010498       17.1421851039        6.6225963987
  C        43.0888935080       17.2384901536        7.3820340044
  C        20.3163436846       17.9180850666        7.3283463083
  C        20.2947317475       17.8921026881        4.5152219716
  C        46.7862736624       17.2305643710       13.8858765633
  C        45.4822860718       17.1239099082       13.1729127634
  C        45.2648181332       16.1277998431       12.2092843829
  C        44.0766441861       16.1024313070       11.4836395094
  C        43.0776613501       17.0697529810       11.7059595410
  C        43.2847651030       18.0344697932       12.7092548298
  C        44.4743344086       18.0666149239       13.4294034779
  C        41.8326148592       17.0946988518       10.9086296400
  C        41.8585800431       17.1150307857        9.4881692990
  C        43.0783150776       17.2232752816        8.7484130206
  C        46.1532813954       26.6371482845        8.7212159925
  C        46.1625998388       26.6561487609       11.5308483544
  C        14.0458203753       17.8319656060       13.7037369735
  C        15.3666420695       17.9068602475       13.0138637598
  C        15.6390031700       18.9211088050       12.0836200242
  C        16.8679462435       18.9585846340       11.4288448626
  C        17.8522538733       17.9810636501       11.6784422587
  C        17.5869130427       16.9962653930       12.6473536864
  C        16.3599484000       16.9580931861       13.3055681491
  C        19.1192601555       17.9556493544       10.9093067049
  C        19.0947134389       17.9289081702        9.4879483224
  C        17.8749206625       17.8180773135        8.7475049889
  C        28.8089057243       14.0912866180        2.3962941775
  C        28.1949177384       12.9164980739        3.0838340088
  C        28.9240021021       12.1654176063        4.0174520910
  C        28.3261303615       11.0897896369        4.6694845465
  C        26.9851749609       10.7410693907        4.4108845838
  C        26.2772816607       11.4723822642        3.4405244395
  C        26.8731493659       12.5484934214        2.7872441379
  C        26.3190571886        9.6595258896        5.1723876206
  C        26.3129108093        9.6827610206        6.5934328130
  C        26.8232598394       10.7926627174        7.3390799327
  C        32.1798917200       21.2393369998        2.1456643302
  C        32.7773060198       22.4053125395        2.8655618118
  C        32.0298607554       23.0857967375        3.8387473916
  C        32.6019215866       24.1230061935        4.5689164165
  C        33.9376355294       24.5087208125        4.3451045508
  C        34.6679508089       23.8474939624        3.3399261006
  C        34.0978900047       22.8041444829        2.6125890568
  C        34.5675975958       25.5832384677        5.1455368906
  C        34.5608170904       25.5535983257        6.5669823784
  C        34.0495053922       24.4392846277        7.3048440011
  C        25.7031703318        8.6053170681        7.3128074210
  C        25.6792330453        8.6107989664        4.4993795906
  C        32.1035737035       21.2249102864       13.8764445236
  C        32.6981484476       22.3734296487       13.1284359765
  C        31.9646942395       23.0359400456       12.1323306102
  C        32.5473362617       24.0649470716       11.3960104435
  C        33.8770371564       24.4616376447       11.6383040463
  C        34.5937920362       23.8119520126       12.6612235069
  C        34.0158004621       22.7772713655       13.3923956615
  C        34.5182231068       25.5430208998       10.8552944262
  C        34.5351653805       25.5334865033        9.4335927689
  C        34.0367316154       24.4302370837        8.6714293373
  C        40.6215559485       17.1149866332        8.7646583925
  C        40.6021518867       17.1175916108       11.5736968485
  C        28.7469485616       14.0658433968       13.8160950964
  C        28.1375387677       12.9168009791       13.0782593210
  C        28.8782082238       12.2186345073       12.1126154044
  C        28.3012798798       11.1607757942       11.4136515024
  C        26.9673365416       10.7752513879       11.6553330168
  C        26.2432571016       11.4617623702       12.6477751871
  C        26.8191088207       12.5200069555       13.3486781742
  C        26.3284568400        9.6832169171       10.8820839560
  C        26.3190135940        9.6949589202        9.4602071276
  C        26.8239615830       10.7998170116        8.7049500582
  C        18.1355071355        3.1811257029        2.3222679787
  C        17.4062507445        4.2783600940        3.0209030759
  C        16.3903908619        4.0000159968        3.9482745671
  C        15.7426955550        5.0400120722        4.6117640619
  C        16.0947748994        6.3837166211        4.3722096559
  C        17.0843450809        6.6532350649        3.4086455809
  C        17.7334101664        5.6158689106        2.7435957731
  C        15.4704024279        7.4913889111        5.1352531488
  C        15.4855243941        7.4906034593        6.5569695553
  C        16.1871037717        6.4969939840        7.3101347176
  C        42.9459240138       31.8596042082        2.0779927121
  C        43.6463211302       30.7719054721        2.8220093022
  C        44.5916817736       31.0932599531        3.8082085957
  C        45.1973990129       30.0877197827        4.5558916134
  C        44.8711537567       28.7346369964        4.3408866533
  C        43.9454985543       28.4202841589        3.3275240642
  C        43.3366674045       29.4254225053        2.5794874165
  C        45.4887290943       27.6553200990        5.1440649944
  C        45.4927597827       27.6808417421        6.5657589879
  C        44.8055744530       28.6888187251        7.3123861492
  C        14.8565043427        8.5630587312        7.2693441493
  C        14.8752525590        8.5632342294        4.4566756594
  C        42.9464653204       31.9616730237       13.8038902329
  C        43.6917308080       30.8854831985       13.0903837342
  C        44.6562652623       31.1913830611       12.1180377425
  C        45.2778214167       30.1717839996       11.4003374071
  C        44.9541093645       28.8214736745       11.6380549861
  C        44.0206875731       28.5238102696       12.6488812321
  C        43.3924004852       29.5405933822       13.3610205253
  C        45.5631315807       27.7240559219       10.8528089905
  C        45.5332751657       27.7172803185        9.4315136639
  C        44.8268477470       28.7074481100        8.6785708715
  C        35.1434337259       26.6248035468        8.7295347527
  C        35.1272221334       26.6019110030       11.5392212357
  C        18.1486427861        3.2470661235       13.7014751700
  C        17.4301058519        4.3438930591       12.9921721046
  C        16.4147017838        4.0526374106       12.0688046527
  C        15.7664238944        5.0832884663       11.3934290991
  C        16.1213066448        6.4284953107       11.6159964864
  C        17.1129424407        6.7118735540       12.5729778338
  C        17.7605944863        5.6829368729       13.2527365839
  C        15.4907473890        7.5241737760       10.8435786453
  C        15.4965053940        7.5074820162        9.4224445946
  C        16.1933047405        6.5057986244        8.6757437218
  H        10.6724554602       12.4655473771       11.8997664079
  H        11.6947708533       10.5507340989       10.6578831559
  H        15.3921472954       11.1692894168       12.7665610493
  H        14.3517159877       13.0720221089       14.0116841327
  H        13.3763853457       11.6312618104        9.1962588111
  H        50.3228444549       22.7481438897       11.9814343113
  H        49.3197101977       24.6226323105       10.6754429456
  H        45.6426517488       24.1617565182       12.8591719820
  H        46.6635921450       22.2907662751       14.1674184588
  H        47.6299775133       23.5759014593        9.2411320021
  H        14.8726179784        8.5885450704       12.6034805878
  H        50.2870571318       22.7022665026        4.0659029486
  H        49.2691220019       24.5751510301        5.3659619909
  H        45.6110538800       24.1100340201        3.1504974695
  H        46.6531847933       22.2546659583        1.8361912906
  H        47.6079165153       23.5518551379        6.8020086375
  H        40.6567363428       17.1347065266        3.4337772239
  H        48.6872727583       14.0950447552       15.7949608878
  H        10.6814442704       12.4665484283        4.0982584517
  H        11.6898185494       10.5246422193        5.3019920881
  H        15.3939972293       11.1595702841        3.2111941861
  H        14.3654961245       13.0879112214        1.9959744932
  H        13.3760806080       11.6222732162        6.7582744575
  H        47.9302002750       14.2190744448        1.7159395027
  H        47.7802735121       14.3747279489       14.4904851525
  H        49.0847420345       18.5528040642        2.8728180741
  H        10.4165287435       14.1342966033        0.0038478911
  H        24.4848052810        3.0242418602       11.9143045895
  H        25.6301248462        4.8809584655       10.6886398132
  H        23.2612592124        7.7528642133       12.8422661321
  H        22.1337234881        5.8865404969       14.0693316384
  H        23.8195698219        5.7872162410        9.2631230052
  H        36.3814023863       32.1836921494       11.9560957549
  H        35.2617637119       30.3562148801       10.6758183324
  H        37.5193085675       27.4374219551       12.8863683666
  H        38.6197013687       29.2777021949       14.1744544070
  H        37.0391264271       29.4414305755        9.2667454163
  H        25.7495744988        8.6052333582       12.6472829950
  H        36.4602812598       32.2393296283        4.1207807693
  H        35.3512571303       30.4190354988        5.4158674716
  H        37.5284606599       27.4865061927        3.1423547987
  H        38.6127223174       29.3185767162        1.8355506576
  H        37.0571322987       29.4613882792        6.8284533870
  H        46.1096785621       26.5878339288        3.3907410713
  H        44.6683029086       35.1162465916       15.8088511269
  H        24.4333515176        3.0369751042        4.0936456913
  H        25.5660663958        4.8746529659        5.3458249901
  H        23.1720337391        7.7669381805        3.2483765905
  H        22.0508600894        5.9173356475        1.9960593097
  H        23.7946703356        5.7890159211        6.8249778373
  H        44.9536903212       34.3902065211        1.7001854039
  H        44.9015181095       34.2066064190       14.4857288426
  H        40.6660869506       33.2094103398        2.8583803533
  H        23.1503972086        1.9581097531        0.0104327801
  H        25.8269032227       19.6398224312       11.8977918409
  H        23.6535275055       19.6901517881       10.6656718521
  H        22.3433936881       16.2289679356       12.8565659182
  H        24.5186948446       16.1974706208       14.0864173242
  H        23.7217059476       17.6629517970        9.2416808217
  H        35.1567681809       15.4393724626       12.0014342866
  H        37.2784621297       15.3990540467       10.6820870732
  H        38.6938407418       18.8125215884       12.8821366123
  H        36.5650567503       18.8350157116       14.2003660416
  H        37.2224565312       17.3586117404        9.2426965497
  H        20.3584172538       17.9836362698       12.6640699919
  H        35.2244259689       15.4229521605        4.0278955008
  H        37.3625128171       15.3709667165        5.3401306929
  H        38.7157408460       18.8698358818        3.2408486258
  H        36.5771950351       18.9040337081        1.9349477805
  H        37.2456892789       17.3751794933        6.8062029142
  H        35.1518414628       26.6803599631        3.3983040447
  H        28.5050964733       21.0660702444       15.9581380464
  H        25.7526063873       19.6294980196        4.1680099047
  H        23.5679004315       19.6836498962        5.3822851520
  H        22.2965583658       16.1817910808        3.2341266421
  H        24.4820940819       16.1498755866        2.0155439870
  H        23.7002141197       17.6483412373        6.8005298949
  H        29.0214980346       21.7109930190        1.7536452064
  H        29.1838054390       21.7242185104       14.6273970056
  H        32.1181005486       18.5558400113        2.9791703718
  H        27.3728353542       19.0215715573        0.0823509007
  H        14.8470814272       19.6453845217        4.1485835786
  H        17.0091258336       19.6900887273        5.3926667857
  H        18.3033407876       16.1887734234        3.2565496581
  H        16.1371768515       16.1592396281        2.0123667281
  H        16.9200088610       17.6923634669        6.8544608890
  H        46.0962102898       15.4551714073        4.0857137048
  H        43.9747024264       15.4097291430        5.4000105506
  H        42.5620860022       18.8360971369        3.2157005716
  H        44.6838192556       18.8560223561        1.8917192237
  H        44.0304641990       17.3566484912        6.8534089543
  H        20.2886378460       17.9229495220        3.4271153317
  H        46.0428209518       15.3892297688       12.0300625185
  H        43.9099232704       15.3306379535       10.7353791001
  H        42.5173391090       18.7849680738       12.8868336165
  H        44.6575172786       18.8307729225       14.1807390909
  H        44.0119851689       17.3285791443        9.2933387362
  H        46.1995984360       26.6828009269       12.6182867743
  H        52.7413822096       21.0626822415        0.1997966760
  H        14.8777264531       19.6736876470       11.8904040205
  H        17.0783316719       19.7478209624       10.7102785970
  H        18.3385367542       16.2355435082       12.8480223951
  H        16.1397641125       16.1846193659       14.0372921897
  H        16.9416065502       17.7092449618        9.2917008095
  H        52.3226984945       21.6734375827       14.2891306566
  H        52.0134064932       21.7022282553        1.5006912147
  H        49.0680838769       18.6079502010       13.1989620060
  H        13.2480706106       19.0159265370       15.9723080219
  H        29.9578682079       12.4392404181        4.2158419208
  H        28.8926404031       10.5057103456        5.3915928053
  H        25.2410334743       11.2126718742        3.2338857488
  H        26.3253921579       13.1343881845        2.0531211800
  H        27.1882389758       11.6598710257        6.7971506712
  H        31.0023968886       22.7761576765        4.0139290719
  H        32.0178228079       24.6505450719        5.3198035493
  H        35.7016371741       24.1368335996        3.1616133350
  H        34.6662283430       22.2676853088        1.8561507859
  H        33.6892462533       23.5723164021        6.7582523589
  H        25.7048158452        8.5940045842        3.4112229583
  H        30.9395807100       22.7258857626       11.9432826451
  H        31.9718554681       24.5810842772       10.6306298167
  H        35.6232307482       24.1072408997       12.8535394342
  H        34.5732388650       22.2532049285       14.1653311041
  H        33.6672001800       23.5561182226        9.1999729642
  H        40.5947878347       17.0784673829       12.6612791098
  H        32.5050885666       14.1489862257        0.2546242387
  H        29.9071750879       12.5204848063       11.9301068731
  H        28.8832881199       10.6141864025       10.6746906098
  H        25.2108479177       11.1771522866       12.8404215128
  H        26.2575059863       13.0661933624       14.1029670722
  H        27.1884395318       11.6725143885        9.2389302996
  H        33.3113826903       14.2342828324       14.4667216658
  H        33.4086533115       14.4203512862        1.5964643390
  H        32.1163422148       18.5039395213       13.1788329616
  H        30.2125216737       14.1905753464        0.0800405129
  H        16.1182591289        2.9635140243        4.1345803324
  H        14.9531669578        4.8206797982        5.3273502399
  H        17.3670413855        7.6860757359        3.2157262675
  H        18.5156527140        5.8185370609        2.0159715967
  H        16.7538119270        5.7397687101        6.7766257752
  H        44.8278137671       32.1403669658        3.9824638524
  H        45.9371456582       30.3415086720        5.3119442426
  H        43.6829731894       27.3781934453        3.1572776737
  H        42.6001979538       29.1901078439        1.8146775350
  H        44.2302276887       29.4365830619        6.7740686934
  H        14.8517472649        8.5466268733        3.3684494174
  H        44.8997668923       32.2340767169       11.9265757129
  H        46.0246871258       30.4130135537       10.6470583406
  H        43.7638248412       27.4840737428       12.8405341752
  H        42.6459844158       29.3178447008       14.1195624311
  H        44.2683441897       29.4703239111        9.2131806872
  H        35.0833629856       26.6147756843       12.6266317403
  H        36.6053023615       35.1340838736        0.1857264106
  H        16.1435088852        3.0130673594       11.8992186720
  H        14.9739910522        4.8565084548       10.6834462957
  H        17.3967798396        7.7472965025       12.7496107931
  H        18.5437600218        5.8933996474       13.9771873638
  H        16.7648715447        5.7556575268        9.2141874542
  H        36.2790698901       34.4821491898       14.2681357053
  H        36.3816321048       34.2089107792        1.5046288820
  H        40.5804741406       33.2029510411       13.1482527896
  H        17.4709740172        1.9479589982       15.9690402097
  H        28.8881636926       19.1444954958        4.4697379907
  H        29.9744396233       19.7435400079       11.6137780618
  H        31.9180896408       15.7924116937       11.5894972717
  H        31.2304443225       15.5787654631        4.5068778264
  H        28.2400673015       17.7378885620        6.8480381425
  H        29.6112243825       15.1991199402        6.4844317014
  H        31.8370388402       19.9285018474        9.5991901976
  H        33.1487100932       16.8532143333        9.4687718282
  H        28.8753616829       16.8131854465        9.3020372181
  H        18.8539640636        0.8691392727        4.3404003732
  H        40.5281498350       35.2289054281       11.9468686889
  H        42.3243419562       34.4190947995       11.5850287158
  H        22.0875106778        0.6926847545        4.3564236056
  H        11.5968739821       18.7129264182        4.3877196867
  H        52.2651184110       18.4311515300       11.6722297405
  H        49.2546107428       16.4774675306       11.5797988565
  H        10.1513036180       15.7982293951        4.2972607765
  H        50.8502799079       17.6925558340       11.9490487509
  H        10.0466190263       17.3946732489        4.0569893605
  H        20.2153752067        0.0023756039        4.0469964402
  H        39.1839301344       36.1245633679       11.6814020672
  H        32.3691962074       18.3929063214        6.9633604467
 Ni        30.9048539250       17.7383897688       10.7486151482
 Ni        31.2377832357       16.3266902351        8.0755754193
 Ni        30.0539759940       18.9635808715        8.1531937013
 Ni        30.3068133385       17.5054443752        5.3316937663
  O        10.6500090450       14.3651223153       13.4807320919
  O        12.6131679547       14.6575052585       14.5788016335
  O        49.1480924083       16.8458426418       15.9846666629
  O        50.3503494037       20.9357796827       13.6428965628
  O        48.3485956996       20.5933402987       14.6607986909
  O        11.0519273077       17.0537927110       14.4956735909
  O        50.3210735196       20.8816724722        2.4119824632
  O        48.3467663866       20.5868017613        1.3322833572