     584
 i =      361, E =     -4836.2305490083
  C        11.8586848940       14.0537911905       13.7365841348
  C        12.4558888090       12.8908350707       13.0182860435
  C        11.7037151964       12.1722926968       12.0767764435
  C        12.2795544310       11.1098050942       11.3845529383
  C        13.6200088712       10.7397091756       11.6122339040
  C        14.3537591856       11.4430844137       12.5853401678
  C        13.7814209089       12.5084162763       13.2767117660
  C        14.2584044606        9.6484370424       10.8389685565
  C        14.2537710032        9.6568189377        9.4173322669
  C        13.7422159000       10.7599466502        8.6637944741
  C        49.1274823963       21.2321883252       13.8744034555
  C        48.5508459857       22.3996798382       13.1469246858
  C        49.3009051554       23.0667958242       12.1658940572
  C        48.7335412394       24.1052580540       11.4321568615
  C        47.4027414248       24.5059796074       11.6605241861
  C        46.6718170474       23.8573832897       12.6741772613
  C        47.2346855390       22.8132597352       13.4040833350
  C        46.7715743943       25.5828434794       10.8633347916
  C        46.7606682939       25.5537635163        9.4416641711
  C        47.2623651175       24.4397194387        8.6978013002
  C        14.8556883074        8.5695169599        8.7039193544
  C        14.8875475971        8.5954648654       11.5153769037
  C        49.1137864714       21.2033699445        2.1499937886
  C        48.5285506018       22.3649366187        2.8766954027
  C        49.2679673169       23.0261735558        3.8690536514
  C        48.6913110001       24.0605246235        4.6004651718
  C        47.3605597372       24.4561847236        4.3625533089
  C        46.6400842303       23.8110102347        3.3393231026
  C        47.2139839734       22.7754046656        2.6075370989
  C        46.7212932929       25.5301888300        5.1538634980
  C        46.7329794376       25.5258506240        6.5754841226
  C        47.2500432688       24.4269827214        7.3312841737
  C        40.6360859109       17.1294250087        7.3257068267
  C        40.6563481193       17.1673688634        4.5170063593
  C        11.8826045909       14.0866361729        2.2902776491
  C        12.4714126633       12.9111193941        2.9950510213
  C        11.7128673326       12.1786675269        3.9208547587
  C        12.2785878977       11.0962684607        4.5899317383
  C        13.6172883146       10.7220579464        4.3586861401
  C        14.3562718084       11.4368557204        3.3981463201
  C        13.7918012128       12.5181044900        2.7248940916
  C        14.2496244138        9.6247052122        5.1289197832
  C        14.2489755174        9.6446712696        6.5506444544
  C        13.7411876300       10.7545040996        7.2977708548
  C        22.3881251945        3.2493363942       13.6363917579
  C        23.1214455895        4.3541409558       12.9598256256
  C        24.1465868713        4.0721430347       12.0452404965
  C        24.8137395224        5.1122444126       11.4046081626
  C        24.4685636697        6.4548657096       11.6561015167
  C        23.4710843590        6.7278365292       12.6089382474
  C        22.8029624433        5.6893200566       13.2524019173
  C        25.0992116109        7.5579681665       10.8966593859
  C        25.0773532696        7.5526088366        9.4757209636
  C        24.3612357804        6.5641118058        8.7291031538
  C        38.3042194632       31.9312389388       13.8454078437
  C        37.5761138391       30.8411603113       13.1356845057
  C        36.6208886004       31.1435785310       12.1532341320
  C        36.0063784430       30.1221600804       11.4342499085
  C        36.3315327223       28.7731755570       11.6768867043
  C        37.2566848641       28.4783155850       12.6960047025
  C        37.8757253246       29.4984133567       13.4134296238
  C        35.7316176195       27.6804608301       10.8792789754
  C        35.7662146963       27.6937314675        9.4579975450
  C        36.4752522226       28.6939296378        8.7208002696
  C        25.7165277725        8.6139378030        8.7583866094
  C        25.7044588958        8.6250025044       11.5712831074
  C        38.3303176207       31.9650756509        2.1581803787
  C        37.6092876304       30.8899788662        2.8989766290
  C        36.6859751302       31.1968200393        3.9101477635
  C        36.0789787865       30.1770159510        4.6406371357
  C        36.3813813643       28.8245951138        4.3843107935
  C        37.2814507387       28.5278178808        3.3424887931
  C        37.8905034640       29.5440590500        2.6131478236
  C        35.7760890055       27.7242496405        5.1690447549
  C        35.7892948888       27.7158782706        6.5911136113
  C        36.4859436083       28.7049223036        7.3542138337
  C        46.1333749123       26.6172767235        7.2860243773
  C        46.0862377208       26.5780328163        4.4781817039
  C        22.3586391234        3.2676739660        2.3790511399
  C        23.0809006767        4.3657750271        3.0895982694
  C        24.1028891736        4.0747154102        4.0060988565
  C        24.7719713213        5.1046753398        4.6634601824
  C        24.4351312847        6.4527721905        4.4290585530
  C        23.4359791366        6.7365025469        3.4801632875
  C        22.7667510493        5.7076354504        2.8201225796
  C        25.0837921645        7.5494070238        5.1886743529
  C        25.0695414381        7.5479806926        6.6104616469
  C        24.3564192644        6.5626538410        7.3634605548
  C        26.6251087557       17.8656352404       13.7800798261
  C        25.3174162384       17.9118338489       13.0551202664
  C        25.0675754769       18.8969041728       12.0864505635
  C        23.8539324968       18.9185401072       11.4010673224
  C        22.8548879296       17.9572893536       11.6598337674
  C        23.1028730964       16.9947372389       12.6570600172
  C        24.3175569185       16.9684113797       13.3410056665
  C        21.5810829243       17.9410061220       10.8954496516
  C        21.5800501311       17.9139866596        9.4726890408
  C        22.7848357497       17.7885559766        8.7116202883
  C        34.4409091827       17.1932442367       13.9128155843
  C        35.7335406749       17.1436614321       13.1668886026
  C        35.9464208154       16.1659784185       12.1826376929
  C        37.1258424234       16.1550511100       11.4436100052
  C        38.1263140180       17.1191127119       11.6728340554
  C        37.9179627956       18.0766944733       12.6830889048
  C        36.7344297548       18.0940240684       13.4174106406
  C        39.3807638035       17.1271013138       10.8878272725
  C        39.3770828708       17.1404536724        9.4666741226
  C        38.1699335401       17.2584783203        8.7082371918
  C        20.3332254897       17.9296126655        8.7640748647
  C        20.3556288375       17.9446228573       11.5774799700
  C        34.4788988745       17.2459768529        2.1816559753
  C        35.7827925681       17.1724172621        2.9047792238
  C        35.9999472489       16.1813654945        3.8736150645
  C        37.1850728825       16.1628261453        4.6034502629
  C        38.1796200523       17.1351392340        4.3837725107
  C        37.9685477499       18.1021733010        3.3837971124
  C        36.7813881484       18.1255672157        2.6565894692
  C        39.4252833519       17.1515398019        5.1805349324
  C        39.4000149224       17.1542181720        6.6012061344
  C        38.1807227788       17.2635082560        7.3417036796
  C        35.1575804459       26.6374284202        7.2952927748
  C        35.1831711537       26.6548606730        4.4862598868
  C        26.5721020293       17.8259958728        2.3319183724
  C        25.2578269918       17.8741162005        3.0375504283
  C        25.0004382957       18.8700093971        3.9915936720
  C        23.7819003022       18.8964946499        4.6641698832
  C        22.7929448533       17.9255523267        4.4083101933
  C        23.0453135436       16.9547788885        3.4216392351
  C        24.2637811234       16.9270907981        2.7464519358
  C        21.5295252351       17.9051045514        5.1817207784
  C        21.5538452324       17.8940986991        6.6034912006
  C        22.7721207657       17.7779698699        7.3454843010
  C        14.0471411086       17.8286291680        2.2944898607
  C        15.3511921342       17.8849570063        3.0203458131
  C        15.6071216590       18.8860869371        3.9704724677
  C        16.8159544805       18.9062114214        4.6637699744
  C        17.8034264055       17.9277233168        4.4298373484
  C        17.5522454369       16.9510698924        3.4474576387
  C        16.3428210792       16.9261494960        2.7558674178
  C        19.0729607222       17.9105384054        5.1985422195
  C        19.0723203947       17.9058295140        6.6211502453
  C        17.8657666301       17.8048397789        7.3828481045
  C        46.8069070216       17.2193973563        2.1638188490
  C        45.5191947836       17.1613145345        2.9118527580
  C        45.3141629081       16.1862406831        3.8999255496
  C        44.1343219788       16.1729541007        4.6385655284
  C        43.1313363678       17.1348714202        4.4098592146
  C        43.3336433347       18.0895826827        3.3952757309
  C        44.5141095064       18.1067744989        2.6577781436
  C        41.8790143006       17.1487863737        5.1975906456
  C        41.8835955980       17.1449231968        6.6190291034
  C        43.0917307836       17.2385771876        7.3791038193
  C        20.3194339271       17.9177844532        7.3290200195
  C        20.2969402879       17.8937231741        4.5157621616
  C        46.7860921406       17.2307705735       13.8852111268
  C        45.4824482776       17.1242038454       13.1715571631
  C        45.2650486271       16.1277882975       12.2081136497
  C        44.0771285106       16.1022250950       11.4820057171
  C        43.0781593065       17.0698863083       11.7031979103
  C        43.2851449231       18.0348153718       12.7063697423
  C        44.4743458597       18.0670421454       13.4271700516
  C        41.8336551583       17.0955391329       10.9049371401
  C        41.8606029541       17.1156834393        9.4843677750
  C        43.0809421394       17.2219501116        8.7454402531
  C        46.1509853836       26.6330137576        8.7204713912
  C        46.1601332964       26.6506838630       11.5299929801
  C        14.0462626885       17.8316877788       13.7032193247
  C        15.3677043753       17.9067874037       13.0135998780
  C        15.6406945352       18.9208260575       12.0833176181
  C        16.8702123956       18.9586631965       11.4293503766
  C        17.8548261627       17.9813823882       11.6791975717
  C        17.5883458692       16.9960739077       12.6473366515
  C        16.3607627950       16.9575191432       13.3047661659
  C        19.1228034919       17.9573369588       10.9106272821
  C        19.0982633833       17.9284950189        9.4891197646
  C        17.8784530142       17.8150823405        8.7489035386
  C        28.8081169764       14.0942891645        2.3947518322
  C        28.1957978424       12.9231397214        3.0907974310
  C        28.9329010285       12.1751182900        4.0208149527
  C        28.3422886952       11.0964550731        4.6747113467
  C        27.0010544530       10.7435439520        4.4233160816
  C        26.2842022182       11.4751607288        3.4598886223
  C        26.8730238033       12.5532777319        2.8032414198
  C        26.3414156097        9.6578525446        5.1847377196
  C        26.3329185173        9.6824363547        6.6056942014
  C        26.8456783254       10.7901688547        7.3539027422
  C        32.1821722728       21.2410415391        2.1472511840
  C        32.7783644037       22.4059389959        2.8673728882
  C        32.0336690591       23.0795560993        3.8477890581
  C        32.6051277046       24.1182981011        4.5762932562
  C        33.9378770863       24.5106380593        4.3460815930
  C        34.6653295428       23.8551281395        3.3348159420
  C        34.0961241186       22.8112015344        2.6079860052
  C        34.5686928432       25.5849602512        5.1460531366
  C        34.5627791557       25.5551453543        6.5676646463
  C        34.0508173532       24.4414956462        7.3058238807
  C        25.7151518880        8.6095074146        7.3244490487
  C        25.7039077822        8.6073565385        4.5110468809
  C        32.1051461988       21.2282636791       13.8767992140
  C        32.6976001752       22.3778019160       13.1312262304
  C        31.9662671843       23.0325070428       12.1282149754
  C        32.5473116845       24.0624844107       11.3921289311
  C        33.8734760739       24.4671189866       11.6403368952
  C        34.5879857918       23.8251714641       12.6700690694
  C        34.0116613650       22.7901324762       13.4018055562
  C        34.5153596435       25.5472495212       10.8561194227
  C        34.5343920600       25.5365619310        9.4341924579
  C        34.0361465454       24.4331952397        8.6723474588
  C        40.6241789655       17.1181710762        8.7595505842
  C        40.6026385132       17.1208083094       11.5690708813
  C        28.7481192392       14.0680211357       13.8209758555
  C        28.1402119344       12.9158841500       13.0854978536
  C        28.8900334329       12.1955846508       12.1431454363
  C        28.3121133084       11.1369851571       11.4459797330
  C        26.9689131961       10.7721711958       11.6683803323
  C        26.2367999354       11.4782131548       12.6404188059
  C        26.8130019938       12.5379584844       13.3384831850
  C        26.3293163661        9.6812315228       10.8954226363
  C        26.3287279576        9.6940044457        9.4740861632
  C        26.8430891189       10.7959964192        8.7200615329
  C        18.1301475065        3.1844167009        2.3208890188
  C        17.3970733337        4.2803723962        3.0159353651
  C        16.3847213436        3.9994752464        3.9463140184
  C        15.7370051509        5.0382995051        4.6115159798
  C        16.0859224412        6.3826417689        4.3709350392
  C        17.0719733837        6.6543157291        3.4043920376
  C        17.7207315191        5.6183467399        2.7371707270
  C        15.4629099925        7.4897823927        5.1354009465
  C        15.4788834830        7.4889102724        6.5570823124
  C        16.1797311567        6.4945416515        7.3098950855
  C        42.9439351606       31.8569056680        2.0799953702
  C        43.6428715796       30.7700215802        2.8253874818
  C        44.5884022251       31.0905995322        3.8117355563
  C        45.1945390178       30.0844388868        4.5580271383
  C        44.8679893305       28.7316569067        4.3417257617
  C        43.9423633177       28.4180675591        3.3281303361
  C        43.3331906148       29.4238165511        2.5813281554
  C        45.4859811475       27.6521124755        5.1439688612
  C        45.4894573474       27.6769596044        6.5656098176
  C        44.8005746693       28.6835071507        7.3125981938
  C        14.8516462524        8.5622010447        7.2697758209
  C        14.8687121414        8.5623849544        4.4572620238
  C        42.9433475304       31.9559902993       13.8007303692
  C        43.6880745513       30.8784216936       13.0894078700
  C        44.6520697524       31.1843212865       12.1164424282
  C        45.2738999136       30.1645996142       11.3995686575
  C        44.9498972524       28.8145486343       11.6380302164
  C        44.0171258585       28.5168394011       12.6494335019
  C        43.3888935860       29.5338746669       13.3613669478
  C        45.5592661672       27.7178908086       10.8524372366
  C        45.5293487005       27.7118142135        9.4312035140
  C        44.8214899830       28.7013238055        8.6787985075
  C        35.1444972730       26.6270008552        8.7300533510
  C        35.1249362139       26.6061782966       11.5396493678
  C        18.1437231047        3.2471089096       13.7039027943
  C        17.4224691490        4.3424192299       12.9950072848
  C        16.4093854916        4.0502132280       12.0695429742
  C        15.7615272655        5.0803989058       11.3928529023
  C        16.1144225690        6.4259557272       11.6164331795
  C        17.1042490756        6.7101927233       12.5750461698
  C        17.7510271784        5.6818385520       13.2562227567
  C        15.4849668933        7.5218264350       10.8436003236
  C        15.4907094151        7.5055114582        9.4225008496
  C        16.1861388705        6.5031375569        8.6755014555
  H        10.6716723471       12.4668822698       11.9000441528
  H        11.6931060764       10.5514249589       10.6580734812
  H        15.3907649544       11.1682102756       12.7667589209
  H        14.3511096613       13.0717895350       14.0118648020
  H        13.3768720273       11.6325858644        9.1974157858
  H        50.3237912332       22.7470992577       11.9815543765
  H        49.3198139048       24.6207203979       10.6745509082
  H        45.6421332490       24.1577797795       12.8568875461
  H        46.6639715753       22.2879473844       14.1663298595
  H        47.6322123824       23.5736844536        9.2391558088
  H        14.8676269906        8.5866363530       12.6036810477
  H        50.2881754709       22.7037082946        4.0637525012
  H        49.2695513897       24.5764752885        5.3637523964
  H        45.6104239249       24.1076725125        3.1507421583
  H        46.6532922818       22.2526732964        1.8362819380
  H        47.6101127317       23.5506598498        6.7999521573
  H        40.6632658395       17.1390067162        3.4291167036
  H        48.6872428138       14.0950319085       15.7949705851
  H        10.6794191168       12.4683235616        4.0973757933
  H        11.6863583099       10.5262719454        5.3025826266
  H        15.3916871144       11.1583873076        3.2130333532
  H        14.3646778224       13.0872519547        1.9966092319
  H        13.3756147607       11.6236909918        6.7591793087
  H        47.9302419719       14.2188038629        1.7158535024
  H        47.7802115773       14.3744124080       14.4903924013
  H        49.0847268444       18.5528186514        2.8727609547
  H        10.4163493863       14.1342975276        0.0039591651
  H        24.3971863640        3.0324814869       11.8464660303
  H        25.6084131653        4.8954101265       10.6940207914
  H        23.1975367387        7.7619652585       12.8079391908
  H        22.0127930088        5.8895229225       13.9719276713
  H        23.7843864871        5.8181522570        9.2674830545
  H        36.3853749312       32.1865065683       11.9548456954
  H        35.2652524356       30.3598309398       10.6743246961
  H        37.5148181640       27.4394066948       12.8906248166
  H        38.6159125731       29.2787180744       14.1791343719
  H        37.0416320144       29.4425663534        9.2670678925
  H        25.7319562085        8.6095110704       12.6593709706
  H        36.4653020556       32.2407992286        4.1210709619
  H        35.3575393583       30.4208261017        5.4173647212
  H        37.5262905558       27.4878275618        3.1369453974
  H        38.6082165569       29.3191895660        1.8280175855
  H        37.0614690092       29.4616411956        6.8288468364
  H        46.1077347718       26.5859794082        3.3901604839
  H        44.6671719177       35.0329310867       15.7885664255
  H        24.3644965542        3.0342254774        4.1848492289
  H        25.5676363984        4.8736328135        5.3685439210
  H        23.1645930430        7.7733035548        3.2920051489
  H        21.9814659841        5.9228432038        2.0994828152
  H        23.7756448927        5.8158791003        6.8303390006
  H        44.9210042750       34.2827704105        1.7117686760
  H        44.7920992994       34.1098570756       14.4601293730
  H        40.6714806862       33.2128622048        2.8025869798
  C        23.7093413880        2.3166892341        0.0048620216
  H        25.8366833086       19.6404898391       11.8874056121
  H        23.6664611948       19.6898771984       10.6569969666
  H        22.3446984633       16.2428322761       12.8663979414
  H        24.5190719493       16.2126899880       14.0967860694
  H        23.7261965681       17.6715618643        9.2404378497
  H        35.1716963086       15.4231492303       12.0090676752
  H        37.2907682997       15.3902975551       10.6876760471
  H        38.6836466686       18.8285450972       12.8631821417
  H        36.5557458186       18.8472500772       14.1813355010
  H        37.2304164058       17.3760307021        9.2405357724
  H        20.3621865500       17.9895579328       12.6651753168
  H        35.2203808312       15.4438292735        4.0498971280
  H        37.3546366773       15.3916874158        5.3518386021
  H        38.7311734283       18.8589275927        3.2116676887
  H        36.5945882561       18.8888990452        1.9049057421
  H        37.2494756151       17.3832473975        6.7955610580
  H        35.1524678135       26.6821980965        3.3986670360
  H        28.5149628140       21.0805156423       15.9529964559
  H        25.7673682264       19.6149530318        4.1909381245
  H        23.5837125817       19.6734740967        5.3993127251
  H        22.2900879754       16.1985668155        3.2174574546
  H        24.4749522701       16.1665933449        1.9984441519
  H        23.7040119358       17.6539447328        6.8020886637
  H        28.9813034595       21.7292452397        1.7755631659
  H        29.1475694677       21.7505051621       14.6040696677
  H        32.1301707596       18.5556421936        2.9739514753
  H        27.4132872034       19.0941237233        0.0853845038
  H        14.8485492184       19.6447430820        4.1497921664
  H        17.0103283268       19.6890869138        5.3937617554
  H        18.3040852189       16.1878789900        3.2571143140
  H        16.1378925333       16.1586741095        2.0132538662
  H        16.9231893337       17.6871791306        6.8561065626
  H        46.0963293125       15.4529550857        4.0817295236
  H        43.9741583126       15.4093702918        5.3965326385
  H        42.5662485327       18.8396431570        3.2156069416
  H        44.6883492555       18.8577239940        1.8908144218
  H        44.0336400991       17.3556577045        6.8508531601
  H        20.2904131298       17.9263131371        3.4276969993
  H        46.0428986379       15.3889365501       12.0294004194
  H        43.9106686683       15.3300890244       10.7340281438
  H        42.5178308337       18.7855824852       12.8832919113
  H        44.6569983828       18.8314689823       14.1783556468
  H        44.0145244936       17.3252538067        9.2908006025
  H        46.1970734708       26.6768637373       12.6174343432
  H        52.7413851191       21.0626962267        0.1997809085
  H        14.8795749581       19.6734854334       11.8897543236
  H        17.0806431298       19.7483038894       10.7112119779
  H        18.3395892761       16.2350443856       12.8482547531
  H        16.1401743656       16.1836122801       14.0359385547
  H        16.9453845520       17.7050771018        9.2933425370
  H        52.3234671016       21.6735169618       14.2888135692
  H        52.0136231375       21.7022613403        1.5008025885
  H        49.0680218640       18.6077277670       13.1988868357
  H        13.2479693817       19.0161219624       15.9724728420
  H        29.9667274401       12.4541825437        4.2125052029
  H        28.9154233004       10.5107987674        5.3904460090
  H        25.2470784574       11.2131590870        3.2607537582
  H        26.3193401101       13.1384958034        2.0729372137
  H        27.2138315563       11.6561367514        6.8119086863
  H        31.0099158896       22.7643391960        4.0339189429
  H        32.0219037204       24.6390942823        5.3325842966
  H        35.6970143390       24.1488711752        3.1522365665
  H        34.6633468651       22.2800019942        1.8470984849
  H        33.6892992899       23.5746158537        6.7601588460
  H        25.7321863617        8.5889990149        3.4229684305
  H        30.9455524940       22.7145083352       11.9288164446
  H        31.9725840677       24.5700826561       10.6205040441
  H        35.6149422954       24.1262719877       12.8666069031
  H        34.5683797887       22.2727674894       14.1797124407
  H        33.6638259815       23.5597838295        9.2000885217
  H        40.5941242449       17.0818748808       12.6566623498
  H        32.5073905045       14.1490980876        0.2565222749
  H        29.9291998358       12.4765822625       11.9855407121
  H        28.8990446185       10.5695942568       10.7265983909
  H        25.1981512713       11.2071822782       12.8186790643
  H        26.2463040928       13.0994592551       14.0776276106
  H        27.2077000470       11.6668176178        9.2570070701
  H        33.3133279510       14.2453869048       14.4710162777
  H        33.4093300720       14.4124142118        1.6027179659
  H        32.0798882508       18.5028856134       13.1515122509
  H        30.2171933127       14.1948312886        0.0744979639
  H        16.1169912802        2.9621610001        4.1347588093
  H        14.9498124747        4.8176170714        5.3292462282
  H        17.3519042320        7.6877141568        3.2105317425
  H        18.5006875106        5.8222033736        2.0074746492
  H        16.7453212457        5.7365865406        6.7762458021
  H        44.8251955843       32.1372923178        3.9872284732
  H        45.9342501440       30.3373205561        5.3144132051
  H        43.6796138207       27.3761518071        3.1571891199
  H        42.5967837187       29.1893395979        1.8161861895
  H        44.2239319284       29.4305430585        6.7746605682
  H        14.8441933109        8.5458059989        3.3690626344
  H        44.8945472558       32.2270400085       11.9239047041
  H        46.0202947268       30.4053785831       10.6456944453
  H        43.7601345495       27.4771233049       12.8410085546
  H        42.6426295521       29.3116252390       14.1202704823
  H        44.2615265612       29.4628620690        9.2137828265
  H        35.0792638496       26.6201564049       12.6269647332
  H        36.6070607136       35.1302673466        0.1979392225
  H        16.1401200985        3.0103574127       11.8985368970
  H        14.9704144829        4.8528824501       10.6816333249
  H        17.3864594292        7.7459263092       12.7524525399
  H        18.5326157865        5.8928472075       13.9821768142
  H        16.7567877260        5.7521315319        9.2136732455
  H        36.2820726627       34.4816026714       14.2658141396
  H        36.3968141872       34.2062769286        1.5147656789
  H        40.5854812343       33.2048213739       13.1895351402
  H        17.4609027376        1.9463990499       15.9829382386
  H        28.8518188823       19.1392327009        4.4150666483
  H        29.8068839665       19.7140353527       11.5535325467
  H        31.8982602305       15.8266160473       11.5668693769
  H        31.1695014844       15.4902216181        4.4363098644
  H        27.8945612056       17.6735594953        6.5911792188
  H        29.2209126421       15.0543198683        6.2844440209
  H        31.6735683373       19.4603265415        9.1834285434
  H        32.7442405611       17.0048708611        9.2676773935
  H        28.7106371624       16.1776258047       10.4364252875
  H        18.9170332886        0.8330266408        4.3209164769
  H        40.5265454596       35.2284800083       11.9491264667
  H        42.2806407861       34.3540431104       11.6299753928
  H        22.0168559664        0.6531350663        4.3409172357
  H        11.5968666578       18.7130334825        4.3877550134
  H        52.2650609267       18.4313777409       11.6719447712
  H        49.2550348788       16.4774003548       11.5797131020
  H        10.1502123632       15.7984331362        4.2981679281
  H        50.8503190606       17.6924477026       11.9490480817
  H        10.0462312380       17.3946938781        4.0570301893
  H        20.4157623985       -0.0431891084        3.9850656696
  H        39.1803840040       36.1225865845       11.6883825089
 Ni        30.7372058686       17.6907062153       10.6622160899
 Ni        31.2375374907       16.0374988531        7.5811344548
 Ni        29.6351712412       19.0570769067        7.9068914692
 Ni        30.0975221771       17.3757085164        5.1656159132
  O        10.6498731489       14.3652391058       13.4808534581
  O        12.6131266952       14.6576564542       14.5788741878
  O        49.1481153658       16.8458463383       15.9846029393
  O        50.3507766708       20.9346098545       13.6426892391
  O        48.3487777538       20.5931277536       14.6608985882
  O        11.0519446565       17.0537232350       14.4956131061
  O        50.3214346342       20.8815532920        2.4118889922
  O        48.3469225491       20.5866221163        1.3322083834
  O        49.5439261059       18.2484834652        2.0733390452