     587
 i =      227, E =     -4853.4603837369
  C        11.8578135572       14.0531608078       13.7370365348
  C        12.4521326326       12.8885235165       13.0194734479
  C        11.6963582432       12.1699275025       12.0807843920
  C        12.2686042100       11.1056809368       11.3884667766
  C        13.6090420868       10.7338325528       11.6131823011
  C        14.3462936726       11.4370376280       12.5838162338
  C        13.7774649867       12.5040234836       13.2755406048
  C        14.2443155717        9.6414040884       10.8391677199
  C        14.2364862668        9.6485189555        9.4175318071
  C        13.7232933430       10.7509822521        8.6642132982
  C        49.1269007759       21.2319177967       13.8738100733
  C        48.5490334511       22.3978151748       13.1449804782
  C        49.2979764848       23.0642074129       12.1626102847
  C        48.7293719038       24.1012548357       11.4278056481
  C        47.3983776583       24.5012356050       11.6564142497
  C        46.6684099617       23.8530796468       12.6710773565
  C        47.2324927135       22.8103484847       13.4019590767
  C        46.7661534860       25.5776485629       10.8594313587
  C        46.7550189675       25.5496892918        9.4377819437
  C        47.2578830779       24.4369505827        8.6927948713
  C        14.8381149218        8.5612510924        8.7037742513
  C        14.8746153193        8.5889849057       11.5151670895
  C        49.1132195339       21.2041847186        2.1493471215
  C        48.5273955656       22.3667361338        2.8739437242
  C        49.2661990217       23.0305725039        3.8650210993
  C        48.6881701737       24.0649200209        4.5954155881
  C        47.3564817452       24.4578563551        4.3580196086
  C        46.6368033532       23.8106479291        3.3355480653
  C        47.2121359232       22.7751261774        2.6047249356
  C        46.7152855579       25.5303564270        5.1499550040
  C        46.7271615373       25.5245808996        6.5715791168
  C        47.2456820606       24.4256174954        7.3263019754
  C        40.6368866569       17.0854539807        7.3308551047
  C        40.6538018848       17.1367873637        4.5222041980
  C        11.8815371061       14.0861490039        2.2897682035
  C        12.4663864050       12.9085025006        2.9936206487
  C        11.7041663953       12.1781446921        3.9181404775
  C        12.2653079776       11.0937767696        4.5876335190
  C        13.6032082999       10.7158389876        4.3583191646
  C        14.3458517727       11.4284647210        3.3988953294
  C        13.7858892027       12.5116714380        2.7251157563
  C        14.2319186065        9.6170741587        5.1290935228
  C        14.2300009036        9.6362407012        6.5508094549
  C        13.7214944267       10.7455286667        7.2981917285
  C        22.3508462917        3.2557054335       13.6318699585
  C        23.0695462411        4.3720714510       12.9548456669
  C        24.1009055746        4.1045059563       12.0424323316
  C        24.7569615947        5.1529609475       11.4032726259
  C        24.3961706555        6.4919491731       11.6534819685
  C        23.3917766589        6.7515120652       12.6029049479
  C        22.7334026662        5.7040298481       13.2436909154
  C        25.0221138426        7.6001080723       10.8943779360
  C        24.9956400847        7.5942580781        9.4730529391
  C        24.2749576502        6.6070390536        8.7287921274
  C        38.2976254222       31.9295251143       13.8479993004
  C        37.5623177308       30.8383456410       13.1502898039
  C        36.5981902703       31.1388311653       12.1759146829
  C        35.9775786484       30.1155295774       11.4656245128
  C        36.3072632564       28.7673409454       11.7069189827
  C        37.2390186884       28.4745396476       12.7204211494
  C        37.8635284708       29.4963656943       13.4302944334
  C        35.7077508296       27.6751622461       10.9090028948
  C        35.7397359765       27.6946270513        9.4878217304
  C        36.4491378975       28.6974963900        8.7543737479
  C        25.6390348003        8.6508899143        8.7525576610
  C        25.6354683658        8.6651729450       11.5661733049
  C        38.3308211641       31.9619290374        2.1617623860
  C        37.6123347834       30.8900626452        2.9124906375
  C        36.6929645290       31.2057140679        3.9251814908
  C        36.0810885493       30.1932722675        4.6626026532
  C        36.3726760499       28.8370365609        4.4127510671
  C        37.2725610587       28.5316456690        3.3725487276
  C        37.8867483764       29.5407577589        2.6362580062
  C        35.7549097768       27.7415193824        5.1978450067
  C        35.7631252495       27.7290774916        6.6206403568
  C        36.4607951365       28.7137420896        7.3880427082
  C        46.1260552559       26.6143869190        7.2832354747
  C        46.0780985292       26.5776989125        4.4753259357
  C        22.3334356527        3.2501958949        2.3824758181
  C        23.0326569793        4.3639899941        3.0930463909
  C        24.0597515061        4.0904309527        4.0097764739
  C        24.7135817018        5.1309032333        4.6659068056
  C        24.3588291802        6.4741015877        4.4293077483
  C        23.3528272263        6.7409626691        3.4824565824
  C        22.6971473823        5.7007924236        2.8244392053
  C        25.0038855706        7.5779410143        5.1846903047
  C        24.9866102439        7.5826941890        6.6068303787
  C        24.2693312647        6.6025557020        7.3628370476
  C        26.6261016341       17.8662039275       13.7780825366
  C        25.3204100601       17.9126940912       13.0477862317
  C        25.0633952081       18.9127008542       12.0956960139
  C        23.8502487857       18.9384716225       11.4094537326
  C        22.8565169176       17.9681666584       11.6535524600
  C        23.1103600292       16.9907630917       12.6346039818
  C        24.3252398089       16.9595372471       13.3181625439
  C        21.5817644923       17.9578119220       10.8912932800
  C        21.5797690887       17.9415512050        9.4685818709
  C        22.7847013510       17.8320476804        8.7050995650
  C        34.4929208077       17.2256633561       13.9933556678
  C        35.7728082646       17.1693519265       13.2256783367
  C        35.9775038555       16.1653859173       12.2666669148
  C        37.1421429566       16.1453319651       11.5042066123
  C        38.1367803092       17.1242171888       11.6887568946
  C        37.9352145795       18.1121305803       12.6708656072
  C        36.7643950790       18.1409217978       13.4248966744
  C        39.3860695032       17.1146923642       10.8946616941
  C        39.3795290543       17.1058246090        9.4737582247
  C        38.1697646395       17.2066616570        8.7171371126
  C        20.3317908344       17.9510691498        8.7622745881
  C        20.3577415560       17.9539740354       11.5756855779
  C        34.4802327705       17.2435567100        2.1916289098
  C        35.7825234878       17.1627675870        2.9142026974
  C        36.0138317843       16.1407684817        3.8480187591
  C        37.1964286225       16.1149973960        4.5818610784
  C        38.1777901735       17.1076046594        4.3938170475
  C        37.9549297777       18.1034492801        3.4260399170
  C        36.7679045492       18.1362612382        2.6988813422
  C        39.4246753000       17.1139167320        5.1887514080
  C        39.3995368690       17.1065596539        6.6088341734
  C        38.1798289901       17.2057360991        7.3504190977
  C        35.1262950388       26.6503725802        7.3217706901
  C        35.1538755790       26.6779630546        4.5123427645
  C        26.5614322844       17.8275562603        2.3249630868
  C        25.2447714743       17.8773327653        3.0260000761
  C        24.9780906837       18.8924340860        3.9572447565
  C        23.7614731326       18.9213679855        4.6326660998
  C        22.7828408653       17.9347111915        4.4006280418
  C        23.0423344775       16.9452780374        3.4347394794
  C        24.2597253592       16.9145828772        2.7570903995
  C        21.5219585101       17.9181198238        5.1779345440
  C        21.5491906090       17.9197161135        6.5994767557
  C        22.7703420572       17.8217822239        7.3390724169
  C        14.0450933069       17.8282511006        2.2946370084
  C        15.3474940782       17.8841346220        3.0224231098
  C        15.6028668919       18.8884808504        3.9690671736
  C        16.8107701790       18.9096089969        4.6634008004
  C        17.7968312601       17.9292682521        4.4326887130
  C        17.5457073301       16.9482651854        3.4549533209
  C        16.3372507724       16.9225271884        2.7621582654
  C        19.0665070588       17.9162022590        5.1997137998
  C        19.0679953155       17.9185344498        6.6219547549
  C        17.8627138421       17.8159742193        7.3852660248
  C        46.8063182951       17.2181244308        2.1638847591
  C        45.5178669464       17.1539673039        2.9112787657
  C        45.3152243985       16.1716420960        3.8928387101
  C        44.1354783385       16.1494849174        4.6314444959
  C        43.1294972873       17.1100724429        4.4103746033
  C        43.3295386021       18.0726541854        3.4025395828
  C        44.5099311896       18.0983126298        2.6644508055
  C        41.8778728021       17.1150412164        5.2003294004
  C        41.8835817511       17.1045177047        6.6219260888
  C        43.0928087565       17.1982790216        7.3801998025
  C        20.3160853620       17.9389751966        7.3274466575
  C        20.2887284649       17.8971687384        4.5144671508
  C        46.7872240720       17.2304697023       13.8862073845
  C        45.4845079142       17.1227731476       13.1727173119
  C        45.2653397827       16.1174476682       12.2191501676
  C        44.0780817562       16.0884175411       11.4926714511
  C        43.0829523901       17.0619063420       11.7041669057
  C        43.2921119962       18.0371891447       12.6966125469
  C        44.4804657212       18.0723364827       13.4182680981
  C        41.8384131281       17.0812041832       10.9072389623
  C        41.8634590277       17.0857649899        9.4870084830
  C        43.0832043690       17.1866622344        8.7464261769
  C        46.1440314685       26.6289046038        8.7176425205
  C        46.1546199396       26.6448703165       11.5270668464
  C        14.0467017211       17.8326911356       13.7039834771
  C        15.3688829182       17.9097960467       13.0149221569
  C        15.6416306121       18.9263668108       12.0872408307
  C        16.8711949947       18.9665721515       11.4333936105
  C        17.8566556825       17.9895983440       11.6811389312
  C        17.5908888074       17.0022601511       12.6474379206
  C        16.3632174986       16.9615123032       13.3048447657
  C        19.1238925197       17.9682312705       10.9110114943
  C        19.0978459659       17.9438050477        9.4893949709
  C        17.8772118342       17.8272921636        8.7511539607
  C        28.8039876364       14.0945633661        2.4035276344
  C        28.1873427755       12.9204631020        3.0904243758
  C        28.9044412294       12.1762245704        4.0390958479
  C        28.2988622796       11.1018628170        4.6871847320
  C        26.9615830191       10.7490957070        4.4132378948
  C        26.2667855850       11.4740826042        3.4282959495
  C        26.8702654183       12.5471711605        2.7773599056
  C        26.2823322479        9.6753501196        5.1754957423
  C        26.2666392842        9.7073839986        6.5967358585
  C        26.7853338022       10.8142751009        7.3421861365
  C        32.1719169436       21.2460702315        2.1920103819
  C        32.7535925218       22.4196069522        2.9040985368
  C        32.0028623432       23.0940541258        3.8785957267
  C        32.5684678578       24.1406847141        4.6003120663
  C        33.8992319168       24.5385566654        4.3675562040
  C        34.6305691638       23.8841586976        3.3585956016
  C        34.0679404890       22.8323460039        2.6395895844
  C        34.5312116143       25.6104795052        5.1689472602
  C        34.5258234828       25.5737993645        6.5906436255
  C        34.0109390237       24.4582904820        7.3246433032
  C        25.6379228603        8.6425563619        7.3183507043
  C        25.6357163210        8.6275957807        4.5044020235
  C        32.0935217600       21.2650329029       13.9821653282
  C        32.6877320643       22.3991476062       13.2148232117
  C        31.9532896458       23.0351572558       12.2010932713
  C        32.5328087621       24.0472744147       11.4383694652
  C        33.8599051529       24.4581600643       11.6728939795
  C        34.5787085503       23.8315719483       12.7103534999
  C        34.0060600646       22.8108053939       13.4651188719
  C        34.4954078581       25.5388742391       10.8817129941
  C        34.5060863690       25.5376666967        9.4587738385
  C        34.0010571867       24.4414193319        8.6914711791
  C        40.6259803809       17.0805598493        8.7645929820
  C        40.6090884750       17.1175935291       11.5732272237
  C        28.7487458503       14.0745615700       13.8181910822
  C        28.1233015455       12.9365384169       13.0712052498
  C        28.8607999148       12.2060980497       12.1262072063
  C        28.2679924512       11.1546634392       11.4289520607
  C        26.9205751329       10.8046853450       11.6546032342
  C        26.1995606420       11.5231687869       12.6256577269
  C        26.7910581374       12.5755828577       13.3228276962
  C        26.2660029657        9.7170903444       10.8868250262
  C        26.2603436083        9.7277359892        9.4654142590
  C        26.7815429175       10.8241098573        8.7081488495
  C        18.1245132830        3.1861780644        2.3198238769
  C        17.3880584172        4.2805496297        3.0137475533
  C        16.3785247499        3.9960107015        3.9459153363
  C        15.7273753228        5.0324172751        4.6113025894
  C        16.0711895392        6.3778029387        4.3697805903
  C        17.0538111394        6.6531693456        3.4008543979
  C        17.7054741267        5.6194108959        2.7329957099
  C        15.4459278695        7.4827834236        5.1349908267
  C        15.4615693234        7.4813628276        6.5566609011
  C        16.1640250417        6.4878924105        7.3091469038
  C        42.9393160586       31.8578144336        2.0775071491
  C        43.6358912256       30.7711344486        2.8253916333
  C        44.5836796001       31.0899807747        3.8100608044
  C        45.1878362125       30.0827865180        4.5566789277
  C        44.8580103806       28.7306420796        4.3414871033
  C        43.9291420104       28.4187326948        3.3304047196
  C        43.3214855685       29.4254857924        2.5837813254
  C        45.4766567723       27.6503457751        5.1424431499
  C        45.4808503468       27.6740533005        6.5640238214
  C        44.7914126539       28.6795455776        7.3119226907
  C        14.8331057320        8.5537767151        7.2696483358
  C        14.8511037089        8.5551146603        4.4572594188
  C        42.9421792431       31.9547084437       13.7977530602
  C        43.6866897792       30.8749132750       13.0885123828
  C        44.6505520805       31.1792009053       12.1149798304
  C        45.2705526002       30.1586135500       11.3978390536
  C        44.9450517173       28.8090966794       11.6368272028
  C        44.0124422489       28.5127847457       12.6487295320
  C        43.3860701888       29.5308511976       13.3610079388
  C        45.5528863750       27.7121225102       10.8505235172
  C        45.5217882601       27.7066522258        9.4293338362
  C        44.8129213211       28.6963463193        8.6781152434
  C        35.1154395777       26.6317297028        8.7569513347
  C        35.1065392661       26.5965627258       11.5668070810
  C        18.1380572786        3.2463213687       13.7033042631
  C        17.4155368687        4.3399824505       12.9932593307
  C        16.4021511172        4.0455304176       12.0689552989
  C        15.7515661013        5.0743726792       11.3928260949
  C        16.1027717964        6.4204737092       11.6154406769
  C        17.0923281691        6.7068842334       12.5736621052
  C        17.7416175440        5.6799189975       13.2543806849
  C        15.4709460147        7.5150615006       10.8430576321
  C        15.4748543801        7.4980111070        9.4219990102
  C        16.1710161533        6.4963670992        8.6747412727
  H        10.6643944208       12.4660297637       11.9062704103
  H        11.6793747627       10.5471503839       10.6643521654
  H        15.3832023740       11.1603715371       12.7630366473
  H        14.3498184329       13.0671694239       14.0088054074
  H        13.3574961696       11.6233864780        9.1978776359
  H        50.3211287697       22.7453249894       11.9783355269
  H        49.3148941914       24.6163909412       10.6694071816
  H        45.6385606886       24.1528134637       12.8539264201
  H        46.6626386080       22.2855564350       14.1652016423
  H        47.6287927819       23.5708350649        9.2332953169
  H        14.8567966376        8.5807749316       12.6035074100
  H        50.2870475840       22.7101096335        4.0596933180
  H        49.2658001456       24.5825970176        5.3579924158
  H        45.6065445769       24.1052858181        3.1470479381
  H        46.6519648966       22.2507202945        1.8342335863
  H        47.6070132004       23.5503867129        6.7940458068
  H        40.6582389946       17.1182229521        3.4340746877
  H        48.6874126898       14.0948087960       15.7951238031
  H        10.6713504187       12.4709555041        4.0929844142
  H        11.6702476913       10.5251587017        5.2990166768
  H        15.3806132914       11.1465922529        3.2153256930
  H        14.3614355020       13.0791610069        1.9976307316
  H        13.3549003440       11.6144289571        6.7598673348
  H        47.9302110467       14.2184730982        1.7156320041
  H        47.7801453031       14.3741372528       14.4907213982
  H        49.0843557472       18.5528855468        2.8725967160
  H        10.4161266129       14.1342435368        0.0037053664
  H        24.3663820585        3.0684928579       11.8439882712
  H        25.5549585453        4.9451689835       10.6936637644
  H        23.1042630186        7.7818651516       12.8018961577
  H        21.9380919599        5.8954929834       13.9600336952
  H        23.6972013354        5.8633022075        9.2694201338
  H        36.3609017272       32.1812705314       11.9771239724
  H        35.2305972193       30.3507484324       10.7106848230
  H        37.4993520856       27.4361004781       12.9145469673
  H        38.6094412856       29.2786764349       14.1909536186
  H        37.0160423626       29.4436110023        9.3034244780
  H        25.6668917169        8.6499604112       12.6541964966
  H        36.4782007945       32.2518771601        4.1314849328
  H        35.3619272867       30.4467625249        5.4383931949
  H        37.5116652467       27.4894794368        3.1712263678
  H        38.6020539747       29.3066048036        1.8514828840
  H        37.0378479767       29.4715740203        6.8658560566
  H        46.0990394045       26.5865073410        3.3872825804
  H        44.6702544134       35.0359848677       15.7778096091
  H        24.3388308505        3.0546593126        4.1892674264
  H        25.5124644134        4.9121784452        5.3713172554
  H        23.0654371112        7.7731351919        3.2925711447
  H        21.9070137130        5.9037972082        2.1053155986
  H        23.6867623592        5.8557663908        6.8314953653
  H        44.9169472741       34.2809674467        1.7105892041
  H        44.7858080209       34.1078688970       14.4574364667
  H        40.6758234007       33.2022417703        2.7911576889
  C        23.7005828690        2.3229278674        0.0027199841
  H        25.8226175519       19.6708882482       11.9140474214
  H        23.6569953604       19.7223424166       10.6799906682
  H        22.3547639668       16.2332520376       12.8330267800
  H        24.5299176841       16.1934549874       14.0625628555
  H        23.7283862152       17.7273205811        9.2320587741
  H        35.2077068078       15.4098824704       12.1299301682
  H        37.3003694130       15.3605728891       10.7675615098
  H        38.6963281435       18.8763674932       12.8141282303
  H        36.5893689231       18.9177561827       14.1657006188
  H        37.2297870237       17.3191901450        9.2501522306
  H        20.3662176575       17.9919722558       12.6636337817
  H        35.2521987417       15.3752565460        3.9827402440
  H        37.3791005569       15.3199544439        5.3018818600
  H        38.7087927525       18.8740916389        3.2788240169
  H        36.5712437066       18.9216781002        1.9728278079
  H        37.2474875659       17.3197051795        6.8047729081
  H        35.1249130014       26.7074100564        3.4247626104
  H        28.4965394832       21.0858895738       15.9736856126
  H        25.7358037902       19.6517657717        4.1362690024
  H        23.5561065773       19.7124743692        5.3506358449
  H        22.2936928606       16.1777441575        3.2492920878
  H        24.4768191879       16.1392853599        2.0261101028
  H        23.7028414182       17.7100311843        6.7939458808
  H        28.9873170912       21.7267112070        1.7757591786
  H        29.1635159056       21.7348714331       14.6240473734
  H        32.0891837642       18.6006595173        3.0575470827
  H        27.4023506092       19.0759248379        0.0873586472
  H        14.8446156686       19.6482852226        4.1446917037
  H        17.0061886000       19.6948913644        5.3904991179
  H        18.2970462450       16.1836067223        3.2686325928
  H        16.1313346700       16.1525824747        2.0224105681
  H        16.9199311765       17.6950136846        6.8596628364
  H        46.0992999812       15.4392212057        4.0697096160
  H        43.9780667438       15.3798813139        5.3839052059
  H        42.5606352491       18.8225088522        3.2284174665
  H        44.6814420366       18.8552473029        1.9026891505
  H        44.0341739995       17.3136945851        6.8506737670
  H        20.2798883434       17.9207568348        3.4262226767
  H        46.0412143571       15.3746193642       12.0487912547
  H        43.9087485463       15.3092416081       10.7527037943
  H        42.5272363101       18.7924990105       12.8644726189
  H        44.6658178367       18.8434681000       14.1618950844
  H        44.0173654045       17.2917262745        9.2904898609
  H        46.1922809554       26.6705281135       12.6144912194
  H        52.7412764263       21.0627640181        0.1997860932
  H        14.8799785116       19.6788116277       11.8948740913
  H        17.0809948973       19.7579331698       10.7169541976
  H        18.3426502634       16.2414250649       12.8471863313
  H        16.1433865111       16.1860176626       14.0345861843
  H        16.9453710641       17.7150119563        9.2971453852
  H        52.3233101351       21.6735404488       14.2888929196
  H        52.0138940081       21.7026333456        1.5009125208
  H        49.0680863749       18.6077806246       13.1989395047
  H        13.2476664668       19.0164579036       15.9724020031
  H        29.9342052890       12.4532046654        4.2545683021
  H        28.8579222142       10.5226168376        5.4189603168
  H        25.2336476661       11.2126160254        3.2086611163
  H        26.3312620273       13.1277380918        2.0326295655
  H        27.1617798043       11.6761018705        6.7995166407
  H        30.9817503649       22.7711135728        4.0669380785
  H        31.9833711598       24.6605542202        5.3556876911
  H        35.6601504218       24.1836087183        3.1738571650
  H        34.6379426305       22.2995586563        1.8820827621
  H        33.6440673729       23.5940336610        6.7781127829
  H        25.6688523318        8.6024275894        3.4165627340
  H        30.9293682448       22.7176851649       12.0165486600
  H        31.9531284081       24.5388744519       10.6600899823
  H        35.6067553952       24.1351208351       12.8970270139
  H        34.5687110243       22.3065056001       14.2474445693
  H        33.6269003980       23.5645133641        9.2122664650
  H        40.6025418728       17.0954146913       12.6612568044
  H        32.5084460241       14.1393504134        0.2805522671
  H        29.9058321505       12.4686585218       11.9718745117
  H        28.8478286287       10.5788866908       10.7102602111
  H        25.1578742352       11.2658960338       12.8068275801
  H        26.2323354441       13.1433814231       14.0632378747
  H        27.1524101956       11.6941131758        9.2420634476
  H        33.3178314035       14.2599455954       14.4869945497
  H        33.4125792807       14.4075207893        1.6115996790
  H        32.1881432720       18.5329299997       13.2745797809
  H        30.2241279949       14.1879094729        0.1279340454
  H        16.1160693250        2.9575131413        4.1352225983
  H        14.9423109819        4.8087940482        5.3304512318
  H        17.3289825760        7.6877099985        3.2062674267
  H        18.4824888506        5.8258794667        2.0008773227
  H        16.7304283751        5.7307804123        6.7751628462
  H        44.8246475026       32.1359650894        3.9838988900
  H        45.9295163004       30.3342076262        5.3116123611
  H        43.6635373928       27.3773558766        3.1605852452
  H        42.5826918048       29.1924474899        1.8205037997
  H        44.2140196656       29.4265031848        6.7746564346
  H        14.8272256127        8.5390287989        3.3690486894
  H        44.8938224390       32.2215935102       11.9217958782
  H        46.0169027916       30.3981047484       10.6435190733
  H        43.7542720025       27.4734527898       12.8408575132
  H        42.6396039244       29.3097291513       14.1200624575
  H        44.2526361813       29.4569814305        9.2140508397
  H        35.0653957385       26.6065091405       12.6543356197
  H        36.6117368456       35.1304396556        0.2033354760
  H        16.1342742479        3.0050832997       11.8992243378
  H        14.9601596423        4.8452210836       10.6824511662
  H        17.3724816836        7.7432544450       12.7505790880
  H        18.5226501869        5.8922039094       13.9805651922
  H        16.7428759197        5.7460649605        9.2126157239
  H        36.2754125826       34.4852545740       14.2656558414
  H        36.4015203463       34.2031450699        1.5140723089
  H        40.5672718086       33.2019254155       13.1457131019
  H        17.4624795976        1.9462198201       15.9808460788
  H        28.7765380429       19.1380520428        4.3924647354
  H        29.2360668782       19.4468681276       11.6337605607
  H        31.9440087376       15.7544726077       11.6577536474
  H        31.0273350766       15.5229962178        4.4751982635
  H        28.4549971263       17.4803934045        6.9327675735
  H        29.2192913288       15.3163838562        6.2334859685
  H        31.2240614459       19.8449539189        9.7949880668
  H        32.4193678911       16.9918479003        9.2937024865
  H        28.3095215235       16.5213117949       10.3952748390
  H        18.8504971405        0.7841389503        4.3492117826
  H        40.5047347102       35.2370187062       11.9408674972
  H        42.2750776188       34.3556545070       11.6165100087
  H        22.0129012069        0.6991844155        4.2931510068
  H        11.5966403528       18.7134717324        4.3879031905
  H        52.2648719067       18.4314237081       11.6716735147
  H        49.2556000141       16.4771257548       11.5791747779
  H        10.1503553483       15.7983666306        4.2979953042
  H        50.8502663817       17.6922708947       11.9491543625
  H        10.0461327915       17.3946085336        4.0571543576
  H        20.5788313296       -0.0534167261        3.9958283414
  H        39.1645010081       36.1290773293       11.6932434033
 Ni        30.7018475608       17.6111144699       10.9863366883
 Ni        30.9430021879       15.7676257005        7.9121639805
 Ni        29.5052833547       19.2492452305        8.2424088365
 Ni        30.3455023152       17.5806440045        5.2497489408
  O        10.6493055793       14.3656531648       13.4810664363
  O        12.6131403864       14.6572761929       14.5785064736
  O        49.1481633186       16.8458774732       15.9847021691
  O        50.3505418878       20.9349674835       13.6427635221
  O        48.3487397886       20.5929833208       14.6609516781
  O        11.0519262697       17.0538716974       14.4956327524
  O        50.3205847006       20.8819183595        2.4119839045
  O        48.3466704004       20.5864816638        1.3319757287
  O        49.5439579825       18.2484661954        2.0734188332