     576
 i =      224, E =     -4780.0584132213
  C        11.8587194214       14.0535017398       13.7364743848
  C        12.4562437214       12.8905917512       13.0181553417
  C        11.7045992218       12.1717451858       12.0763985869
  C        12.2809761892       11.1095213035       11.3840784241
  C        13.6215315507       10.7396876111       11.6118780000
  C        14.3546357684       11.4431625410       12.5854665316
  C        13.7817447506       12.5081538732       13.2769420342
  C        14.2610818916        9.6490279008       10.8385038739
  C        14.2564670270        9.6570094790        9.4168050026
  C        13.7432678025       10.7591185231        8.6628933403
  C        49.1268253719       21.2332486194       13.8745510521
  C        48.5501175995       22.4011785240       13.1474515369
  C        49.3001970338       23.0685649865       12.1665364134
  C        48.7332679497       24.1077208349       11.4333592492
  C        47.4027109185       24.5093298312       11.6619581702
  C        46.6717103938       23.8603709396       12.6753781483
  C        47.2341496831       22.8154509129       13.4047068603
  C        46.7724553211       25.5870137617       10.8646839583
  C        46.7614762981       25.5573987988        9.4429255849
  C        47.2614147467       24.4423112468        8.6994267188
  C        14.8604548837        8.5707041585        8.7035360833
  C        14.8918599585        8.5970790474       11.5151548271
  C        49.1132473260       21.2034870120        2.1504712137
  C        48.5279010318       22.3648059101        2.8776934890
  C        49.2671781111       23.0256260557        3.8705017140
  C        48.6908179893       24.0601591586        4.6019673339
  C        47.3603820742       24.4568920134        4.3637903775
  C        46.6399385277       23.8118725032        3.3403634628
  C        47.2134950077       22.7759792253        2.6085735751
  C        46.7219446476       25.5318665069        5.1548118064
  C        46.7336706901       25.5282160868        6.5765105095
  C        47.2491331884       24.4290036512        7.3328755216
  C        40.6338278064       17.1538948639        7.3279561171
  C        40.6551886948       17.1766174847        4.5191967786
  C        11.8829866972       14.0865127193        2.2905744776
  C        12.4723301407       12.9107170166        2.9947904529
  C        11.7148515270       12.1775478720        3.9209557997
  C        12.2814687372       11.0951043626        4.5893654894
  C        13.6203001367       10.7214007609        4.3575560773
  C        14.3582200728       11.4369355096        3.3966853981
  C        13.7927756417       12.5180945331        2.7239939961
  C        14.2539182549        9.6246600440        5.1279574604
  C        14.2526697145        9.6446740325        6.5497934036
  C        13.7427235940       10.7536054674        7.2968468565
  C        22.5112672345        3.2443236743       13.7477934695
  C        23.2245305726        4.3499331835       13.0476278659
  C        24.2204506592        4.0705780424       12.1001798324
  C        24.8458837746        5.1106363394       11.4175417595
  C        24.4909623999        6.4521085239       11.6622575648
  C        23.5233276337        6.7230235179       12.6467901149
  C        22.8932852322        5.6847842282       13.3278160214
  C        25.0954469497        7.5589343260       10.8863878609
  C        25.0681200924        7.5516828374        9.4648918062
  C        24.3653800823        6.5526133224        8.7190280114
  C        38.3028042858       31.9300940987       13.8442893034
  C        37.5734431341       30.8404907604       13.1352084399
  C        36.6129104950       31.1438562241       12.1583280879
  C        35.9963223422       30.1230752859       11.4403658659
  C        36.3258458993       28.7743312718       11.6779331074
  C        37.2566232548       28.4784191354       12.6914363739
  C        37.8772242690       29.4978628080       13.4083295454
  C        35.7243170632       27.6825192900       10.8807199319
  C        35.7537470190       27.6989163578        9.4594934583
  C        36.4589443178       28.7020038166        8.7225693390
  C        25.6919240814        8.6210592210        8.7448260807
  C        25.6920343916        8.6340959038       11.5570079648
  C        38.3290005896       31.9625049434        2.1613855685
  C        37.6074289386       30.8898472416        2.9037307590
  C        36.6785848089       31.1994916886        3.9089591842
  C        36.0681532848       30.1815767083        4.6389174384
  C        36.3723581283       28.8288666106        4.3869086804
  C        37.2789443224       28.5291922876        3.3516978067
  C        37.8915260658       29.5435861936        2.6230233023
  C        35.7637242226       27.7303161748        5.1710531601
  C        35.7738325164       27.7234671645        6.5929648461
  C        36.4682092154       28.7139921040        7.3560859592
  C        46.1356834448       26.6208584063        7.2866491792
  C        46.0879706118       26.5801955195        4.4787372757
  C        22.4604599247        3.2556691801        2.2624955514
  C        23.1537233909        4.3645816014        2.9853001498
  C        24.1552869721        4.0789791244        3.9267364319
  C        24.7824479011        5.1095636925        4.6226122420
  C        24.4280620168        6.4551347895        4.3993925385
  C        23.4496331631        6.7340296588        3.4264395940
  C        22.8177255237        5.7036687017        2.7311842151
  C        25.0580084843        7.5535605583        5.1734725814
  C        25.0493884660        7.5483374476        6.5961578450
  C        24.3544533339        6.5522948994        7.3524006898
  C        26.6237615666       17.8595354508       13.7743598892
  C        25.3179897482       17.9009568221       13.0463116019
  C        25.0505152589       18.9008988878       12.0977764149
  C        23.8370310104       18.9165782117       11.4123908146
  C        22.8527406101       17.9368256446       11.6549975153
  C        23.1159701168       16.9593979345       12.6332679562
  C        24.3319520394       16.9374390127       13.3149877333
  C        21.5784557150       17.9206092969       10.8921238437
  C        21.5784321816       17.9004604687        9.4696549685
  C        22.7840553554       17.7789932852        8.7087640045
  C        34.4398023495       17.1948872616       13.9163062511
  C        35.7325481211       17.1474542636       13.1725558137
  C        35.9381441697       16.1842627793       12.1725904242
  C        37.1169124203       16.1790637867       11.4323734038
  C        38.1230609636       17.1339880478       11.6756627859
  C        37.9210206790       18.0765927093       12.7016459153
  C        36.7383048699       18.0891298260       13.4368060450
  C        39.3773685646       17.1480360450       10.8901830144
  C        39.3739401987       17.1685035972        9.4688076491
  C        38.1674710609       17.2934281269        8.7103653169
  C        20.3317644813       17.9182964601        8.7613846601
  C        20.3538736094       17.9228191801       11.5749468498
  C        34.4765312259       17.2459194252        2.1883493062
  C        35.7799150794       17.1720314256        2.9090352624
  C        35.9904363858       16.1966740138        3.8950293566
  C        37.1759606097       16.1823377570        4.6240569324
  C        38.1783503872       17.1424005845        4.3855733154
  C        37.9743645097       18.0917307101        3.3669731843
  C        36.7866277009       18.1116819789        2.6413071166
  C        39.4236443193       17.1655561909        5.1825157268
  C        39.3977360879       17.1786128693        6.6034148023
  C        38.1791254891       17.2968241149        7.3436733852
  C        35.1429094094       26.6443238882        7.2966493746
  C        35.1731233468       26.6602426658        4.4876346400
  C        26.5715281164       17.8275500366        2.3280763069
  C        25.2550457468       17.8736346732        3.0321904863
  C        24.9888840566       18.8797879767        3.9731785550
  C        23.7717991770       18.9028890914        4.6486815166
  C        22.7912639381       17.9202473981        4.4055753638
  C        23.0511635966       16.9396951824        3.4311821824
  C        24.2693530589       16.9141534346        2.7547164682
  C        21.5281375922       17.8995798127        5.1795628926
  C        21.5525159855       17.8881641772        6.6010356634
  C        22.7713632164       17.7729954432        7.3424678622
  C        14.0464250929       17.8284765754        2.2940870574
  C        15.3506962339       17.8842494259        3.0197743598
  C        15.6074149970       18.8854566974        3.9694268187
  C        16.8163826756       18.9045447358        4.6624138530
  C        17.8027860269       17.9253509598        4.4276681458
  C        17.5508587322       16.9484984225        3.4458663862
  C        16.3412960658       16.9246811676        2.7546602266
  C        19.0720231885       17.9066770357        5.1962467642
  C        19.0711755366       17.9008177063        6.6186752830
  C        17.8644299519       17.8001250128        7.3801447297
  C        46.8066571548       17.2204460099        2.1650890414
  C        45.5191332793       17.1648397571        2.9138531452
  C        45.3137209028       16.1938086260        3.9059292855
  C        44.1338655909       16.1837739346        4.6448769650
  C        43.1305545319       17.1445717738        4.4124307145
  C        43.3334880752       18.0953674792        3.3942094084
  C        44.5140536814       18.1096595558        2.6567253343
  C        41.8778014011       17.1622673244        5.2000191329
  C        41.8816743925       17.1649597150        6.6215422924
  C        43.0897182117       17.2589856066        7.3816300328
  C        20.3181502861       17.9111082212        7.3265349916
  C        20.2959077909       17.8888591727        4.5134453716
  C        46.7857181985       17.2311764162       13.8850728448
  C        45.4815652652       17.1276775985       13.1720982841
  C        45.2615439051       16.1351988688       12.2051961730
  C        44.0729606322       16.1146996234       11.4798634710
  C        43.0757073451       17.0834011369       11.7050613896
  C        43.2852155373       18.0439158071       12.7119723707
  C        44.4749866266       18.0711696983       13.4319658388
  C        41.8308499087       17.1145700791       10.9071950820
  C        41.8578220076       17.1387942474        9.4866846522
  C        43.0784067085       17.2440309256        8.7480154370
  C        46.1534564193       26.6372850894        8.7211948652
  C        46.1625002871       26.6561299015       11.5308103346
  C        14.0455776382       17.8306340351       13.7030386675
  C        15.3667430991       17.9017878781       13.0117808589
  C        15.6429447244       18.9157186053       12.0824226823
  C        16.8723896340       18.9496485018       11.4280143129
  C        17.8534799712       17.9686486884       11.6768822124
  C        17.5840597634       16.9834629138       12.6442121443
  C        16.3566818693       16.9490749377       13.3021337252
  C        19.1211177313       17.9410359267       10.9082006053
  C        19.0969020469       17.9169780199        9.4866649072
  C        17.8769693563       17.8073455713        8.7461565171
  C        28.8083137213       14.0914665150        2.3969503731
  C        28.1955642885       12.9166349678        3.0817033937
  C        28.9162692255       12.1787682254        4.0321369915
  C        28.3165105568       11.1036307010        4.6826260705
  C        26.9815344705       10.7440117039        4.4083184866
  C        26.2826971620       11.4622483839        3.4214459309
  C        26.8807135830       12.5367185471        2.7680774548
  C        26.3113075850        9.6655684634        5.1701025658
  C        26.2981640973        9.6927576036        6.5912312194
  C        26.8033976931       10.8050884227        7.3367171012
  C        32.1788134645       21.2430740287        2.1496382798
  C        32.7722639389       22.4115200399        2.8656598347
  C        32.0232690947       23.0897675010        3.8395079744
  C        32.5936436299       24.1283573306        4.5690354917
  C        33.9286728217       24.5164895080        4.3452234292
  C        34.6600408977       23.8574888459        3.3391493311
  C        34.0919859087       22.8133540426        2.6116150361
  C        34.5575802427       25.5907826698        5.1468185956
  C        34.5493765332       25.5616993580        6.5684873537
  C        34.0383909844       24.4474456495        7.3064629818
  C        25.6870043188        8.6158079569        7.3102490004
  C        25.6744465900        8.6148052760        4.4970765592
  C        32.1067231308       21.2304083748       13.8855785572
  C        32.6992219787       22.3817461979       13.1415166375
  C        31.9611333172       23.0448012067       12.1488039228
  C        32.5413545217       24.0715477346       11.4074572075
  C        33.8729349163       24.4665011675       11.6426903770
  C        34.5936977683       23.8173341537       12.6633162126
  C        34.0186436740       22.7838833813       13.3986288435
  C        34.5116648924       25.5478018885       10.8573238577
  C        34.5248425089       25.5402417033        9.4354645683
  C        34.0256722743       24.4376005465        8.6731158970
  C        40.6213993163       17.1446575865        8.7618579013
  C        40.5996941960       17.1379247582       11.5712449417
  C        28.7384923961       14.0662043879       13.8146623469
  C        28.1271381917       12.9231948778       13.0737002293
  C        28.8636774701       12.2217153368       12.1069202039
  C        28.2811507735       11.1672018756       11.4080695405
  C        26.9462740108       10.7865948249       11.6518346985
  C        26.2263774609       11.4755394593       12.6458914518
  C        26.8069864398       12.5313723645       13.3457651320
  C        26.3044302910        9.6961175986       10.8792814820
  C        26.2966132019        9.7081972198        9.4575038283
  C        26.8008531883       10.8135650702        8.7025862737
  C        18.1354118315        3.1810112742        2.3222831400
  C        17.4061684836        4.2782817216        3.0209320639
  C        16.3904051055        3.9999530114        3.9484009130
  C        15.7426753983        5.0399656068        4.6118477090
  C        16.0947409546        6.3836581177        4.3722427240
  C        17.0841418432        6.6531564192        3.4084948850
  C        17.7332306446        5.6157802678        2.7434927036
  C        15.4703931866        7.4913688807        5.1352449200
  C        15.4857136336        7.4907074369        6.5569531438
  C        16.1872831081        6.4971094022        7.3101334134
  C        42.9459381816       31.8595319357        2.0779963760
  C        43.6463351950       30.7718774796        2.8219573908
  C        44.5918725188       31.0932136478        3.8080177949
  C        45.1975881248       30.0876732593        4.5556818633
  C        44.8711758952       28.7346084223        4.3408150908
  C        43.9453294179       28.4202486877        3.3276328002
  C        43.3365052946       29.4253882030        2.5795980936
  C        45.4887906859       27.6553334495        5.1440073199
  C        45.4929488473       27.6809456657        6.5656990051
  C        44.8058509342       28.6889881519        7.3123166196
  C        14.8566990645        8.5631653444        7.2693193297
  C        14.8751341788        8.5631412734        4.4566453351
  C        42.9464853906       31.9615889420       13.8038733707
  C        43.6917285083       30.8854713151       13.0903826570
  C        44.6563363063       31.1914019360       12.1181038595
  C        45.2778585636       30.1718136659       11.4003817453
  C        44.9541133641       28.8214905928       11.6380231495
  C        44.0206036516       28.5238161879       12.6487712280
  C        43.3923375389       29.5405714480       13.3609606958
  C        45.5631770996       27.7241150736       10.8527651292
  C        45.5334494605       27.7174277643        9.4314696657
  C        44.8271142669       28.7076351459        8.6784999271
  C        35.1316565102       26.6325514949        8.7313611256
  C        35.1223641813       26.6057208315       11.5411351718
  C        18.1485606243        3.2470161576       13.7014766106
  C        17.4299709767        4.3438675014       12.9922043641
  C        16.4147575197        4.0526111176       12.0686436246
  C        15.7664738657        5.0832688434       11.3932701897
  C        16.1212093328        6.4284850486       11.6159616207
  C        17.1126169688        6.7118356405       12.5731923725
  C        17.7602782087        5.6829112081       13.2529491104
  C        15.4907324749        7.5241974477       10.8435340502
  C        15.4966581324        7.5075846719        9.4224058717
  C        16.1934934601        6.5059136465        8.6757355986
  H        10.6724749772       12.4658850383       11.8993541510
  H        11.6947205672       10.5510692253       10.6574857227
  H        15.3916459065       11.1685164850       12.7672543541
  H        14.3511558401       13.0713081364       14.0124684319
  H        13.3761898758       11.6312142257        9.1962074102
  H        50.3229250459       22.7485612502       11.9818408959
  H        49.3197678497       24.6230391672       10.6758292691
  H        45.6421899705       24.1610796713       12.8584844444
  H        46.6630950331       22.2901402872       14.1667156023
  H        47.6299089099       23.5759234830        9.2411242345
  H        14.8721450338        8.5883015469       12.6034615617
  H        50.2872539503       22.7028319580        4.0653505428
  H        49.2692357222       24.5756820770        5.3654048887
  H        45.6105097089       24.1090592274        3.1513637955
  H        46.6526145627       22.2537507705        1.8371014079
  H        47.6078702446       23.5518630181        6.8019863619
  H        40.6625328127       17.1401495710        3.4315417418
  H        48.6869707248       14.0949696045       15.7948853688
  H        10.6813607261       12.4665700357        4.0983296109
  H        11.6896909719       10.5246785707        5.3020507014
  H        15.3936649446       11.1590798163        3.2107620761
  H        14.3650968704       13.0874760739        1.9954574100
  H        13.3758751539       11.6222035209        6.7581948651
  H        47.9301960949       14.2181494607        1.7160441369
  H        47.7800481854       14.3734687751       14.4899458369
  H        49.0842319217       18.5527152599        2.8726510181
  H        10.4160383014       14.1342907126        0.0037797892
  H        24.4819395290        3.0321732152       11.9090896092
  H        25.6183636308        4.8939844649       10.6828612295
  H        23.2420585179        7.7557756270       12.8420281620
  H        22.1238868895        5.8843417322       14.0696519579
  H        23.8035014112        5.7964297775        9.2594816942
  H        36.3747010967       32.1869119344       11.9638896026
  H        35.2509939664       30.3611149790       10.6846630486
  H        37.5181886120       27.4395349821       12.8815093757
  H        38.6216625901       29.2779806656       14.1698402804
  H        37.0244418914       29.4513177111        9.2687971994
  H        25.7265003840        8.6175314148       12.6448519557
  H        36.4560231635       32.2439048548        4.1155367520
  H        35.3423362506       30.4269034165        5.4110713326
  H        37.5255339917       27.4887563114        3.1506844972
  H        38.6140125773       29.3174872665        1.8426219494
  H        37.0419773502       29.4720416835        6.8307499429
  H        46.1093575011       26.5875628481        3.3907042024
  H        44.6682525660       35.1161973229       15.8088253962
  H        24.4330072736        3.0408504801        4.0945087328
  H        25.5627519895        4.8814389114        5.3455570955
  H        23.1647270588        7.7684478505        3.2453192596
  H        22.0464151920        5.9158206738        1.9944053609
  H        23.7835765167        5.7963644238        6.8209801502
  H        44.9537518243       34.3902895460        1.7002252959
  H        44.9016376670       34.2067377183       14.4855345941
  H        40.6659716432       33.2090878834        2.8582532333
  H        23.1503489921        1.9579237182        0.0102491192
  H        25.8026248606       19.6650133855       11.9148812673
  H        23.6353061730       19.6984285485       10.6832244583
  H        22.3681221761       16.1938192188       12.8299368694
  H        24.5453347494       16.1694961022       14.0549029298
  H        23.7249315827       17.6603211608        9.2382601826
  H        35.1581568380       15.4495985077       11.9869121075
  H        37.2749800409       15.4261160295       10.6633924384
  H        38.6907033357       18.8214780836       12.8929917780
  H        36.5641981200       18.8318806150       14.2119272912
  H        37.2266603367       17.4151885309        9.2397622068
  H        20.3609304463       17.9626596093       12.6628282572
  H        35.2050803853       15.4690682733        4.0862497061
  H        37.3393913798       15.4239202594        5.3865352146
  H        38.7429981243       18.8385560304        3.1791185432
  H        36.6056400264       18.8626370947        1.8759142161
  H        37.2475539538       17.4209073786        6.7990474581
  H        35.1455387964       26.6864156510        3.3999540493
  H        28.5088368643       21.0832027450       15.9747400067
  H        25.7488915945       19.6361542218        4.1561299454
  H        23.5648459058       19.6871562410        5.3736997919
  H        22.3021459857       16.1745268843        3.2375989002
  H        24.4866773043       16.1449508843        2.0174546604
  H        23.7023032145       17.6493588290        6.7971495641
  H        29.0130811539       21.7179049167        1.7610614200
  H        29.1511029566       21.7487371298       14.6142623767
  H        32.0803172083       18.5716466339        3.0038205767
  H        27.4043163981       19.0749867168        0.0929070897
  H        14.8490776337       19.6442336575        4.1492038913
  H        17.0117559541       19.6871037249        5.3924536244
  H        18.3020526455       16.1846522715        3.2555773552
  H        16.1351132282       16.1571461927        2.0124714419
  H        16.9218590324       17.6846654728        6.8529477858
  H        46.0955200712       15.4608299187        4.0906735708
  H        43.9738603725       15.4232066392        5.4058981805
  H        42.5663512977       18.8449527973        3.2114779866
  H        44.6882807731       18.8578565938        1.8870723160
  H        44.0319441319       17.3742307487        6.8535159495
  H        20.2894464484       17.9206595010        3.4253752606
  H        46.0377579110       15.3954220247       12.0230698645
  H        43.9046115571       15.3456836382       10.7291068758
  H        42.5194357258       18.7953969293       12.8925053710
  H        44.6594661775       18.8324540967       14.1858684698
  H        44.0120256134       17.3465623893        9.2934925776
  H        46.1993208584       26.6826527768       12.6182557602
  H        52.7411887226       21.0626267206        0.1998125180
  H        14.8844000338       19.6711833470       11.8895605366
  H        17.0854705158       19.7389967258       10.7103458461
  H        18.3325254072       16.2194525481       12.8442461518
  H        16.1335519362       16.1755556800       14.0329251417
  H        16.9438092479       17.6974808508        9.2904233358
  H        52.3224403800       21.6732298537       14.2891131781
  H        52.0131365981       21.7019821716        1.5007689211
  H        49.0675118138       18.6077981024       13.1990396272
  H        13.2476369273       19.0161542204       15.9720660162
  H        29.9431700365       12.4641229567        4.2485573946
  H        28.8768533868       10.5299564074        5.4176716239
  H        25.2511645715       11.1942356710        3.2023157039
  H        26.3390689885       13.1129876812        2.0220089882
  H        27.1686442103       11.6729882006        6.7959414441
  H        30.9979740093       22.7763698124        4.0204188454
  H        32.0079851112       24.6533516177        5.3205210218
  H        35.6933193383       24.1483047318        3.1610138542
  H        34.6622064400       22.2781632769        1.8557644438
  H        33.6797812263       23.5802180924        6.7594260142
  H        25.7050532319        8.5948055866        3.4091049762
  H        30.9338933390       22.7360165137       11.9679008479
  H        31.9626806831       24.5870116892       10.6439792209
  H        35.6244027013       24.1116864439       12.8501424500
  H        34.5802920311       22.2596755062       14.1684176055
  H        33.6577464445       23.5623135242        9.2009042905
  H        40.5913366333       17.0930318172       12.6586179960
  H        32.5129541608       14.1498260331        0.2725448559
  H        29.8955106375       12.5120682687       11.9230514054
  H        28.8600636311       10.6190412816       10.6679325623
  H        25.1935218261       11.1941642124       12.8407839258
  H        26.2483961833       13.0786318726       14.1014637909
  H        27.1628272459       11.6883033660        9.2350168316
  H        33.3006363809       14.2054118056       14.4418402627
  H        33.4094643970       14.4082728686        1.6132456985
  H        32.1929436066       18.5749546221       13.2277849680
  H        30.2238419802       14.1917926756        0.0873864643
  H        16.1182609309        2.9634571818        4.1347368605
  H        14.9531886170        4.8206278235        5.3274822977
  H        17.3666838977        7.6860185621        3.2154650497
  H        18.5153008951        5.8183830542        2.0156683627
  H        16.7538648896        5.7397945977        6.7766242813
  H        44.8281520833       32.1402965652        3.9821958944
  H        45.9374770644       30.3414288554        5.3115999416
  H        43.6826327881       27.3781824954        3.1575186857
  H        42.5998831643       29.1900449917        1.8149412499
  H        44.2304885789       29.4367500353        6.7740183753
  H        14.8513491068        8.5463460333        3.3684235562
  H        44.8998650051       32.2340869699       11.9266614289
  H        46.0247823735       30.4130486144       10.6471678923
  H        43.7636759776       27.4840833682       12.8403510701
  H        42.6458481001       29.3177635920       14.1194123432
  H        44.2685949138       29.4705077091        9.2130889967
  H        35.0817699083       26.6169939659       12.6286773178
  H        36.6051200745       35.1340723125        0.1857490534
  H        16.1436353355        3.0130375696       11.8989574807
  H        14.9741174012        4.8564550797       10.6832125995
  H        17.3961866927        7.7472902914       12.7500524007
  H        18.5432068876        5.8933142770       13.9776711558
  H        16.7649268773        5.7556876295        9.2141912806
  H        36.2785318266       34.4825569046       14.2680575140
  H        36.3808869312       34.2092046164        1.5047708581
  H        40.5803505891       33.2026051586       13.1484669000
  H        17.4706673956        1.9473904623       15.9690339278
  H        29.2014845835       19.5419587387        4.5698122362
  H        28.9076972584       19.0019189145       11.7945751522
  H        30.7046255249       15.4435883403       11.7983426880
  H        31.0466051099       15.5668145531        4.5019676183
  H        28.0820430476       18.3868642836        6.8972284067
  H        29.0047478190       15.6050183404        6.5827471882
  H        30.9649509316       19.8228475997       10.1296408535
  H        32.6353227760       17.7368462643        9.4243823004
  H        29.0768815861       16.4301370511        9.5829245644
  H        18.8538682499        0.8691731186        4.3404435427
  H        40.5279164890       35.2289844962       11.9469232246
  H        42.3241655176       34.4189712192       11.5852892251
  H        22.0878144418        0.6922580334        4.3566389900
  H        11.5969156273       18.7131801877        4.3876924229
  H        52.2649396662       18.4312097761       11.6720620121
  H        49.2553304454       16.4770892887       11.5794250942
  H        10.1508243766       15.7980928294        4.2975589795
  H        50.8501047813       17.6923683568       11.9491799013
  H        10.0464233312       17.3944423443        4.0570826404
  H        20.2152138431        0.0023784505        4.0470555038
  H        39.1836644627       36.1244242226       11.6812901856
 Ni        30.6503597118       17.6390147899       10.9920616528
 Ni        30.9475449522       16.3997790882        7.9993493935
 Ni        30.0572443588       18.8152719910        8.1599738283
 Ni        30.1442406787       17.5485322705        5.4080260359
  O        10.6499523918       14.3651017703       13.4807039297
  O        12.6131819766       14.6575097696       14.5787857605
  O        49.1481607733       16.8459011865       15.9846097634
  O        50.3502860674       20.9358372042       13.6429863142
  O        48.3486086166       20.5933405977       14.6608073394
  O        11.0517101955       17.0538783449       14.4955318285
  O        50.3210848734       20.8816702929        2.4119375651
  O        48.3467685907       20.5868473246        1.3322560541
  O        49.5437980976       18.2484575925        2.0733836790