     576
 i =      278, E =     -4780.0668244573
  C        11.8586667921       14.0535203731       13.7364469896
  C        12.4561732412       12.8905533375       13.0181772557
  C        11.7045454841       12.1717733436       12.0763565969
  C        12.2809334891       11.1095886808       11.3839827531
  C        13.6214412197       10.7396446043       11.6118682294
  C        14.3545100395       11.4430370229       12.5855435600
  C        13.7816139640       12.5079853398       13.2770812418
  C        14.2610276322        9.6490215256       10.8384765067
  C        14.2563850078        9.6569728027        9.4167785079
  C        13.7432075166       10.7590837914        8.6628566810
  C        49.1267617571       21.2332686809       13.8745674147
  C        48.5500371062       22.4011657614       13.1474455671
  C        49.3001250990       23.0686003065       12.1665667986
  C        48.7331883225       24.1077439521       11.4333835717
  C        47.4025980612       24.5092832853       11.6619135747
  C        46.6715760904       23.8602734896       12.6752874403
  C        47.2340255240       22.8153578418       13.4046204952
  C        46.7723837443       25.5870042409       10.8646582486
  C        46.7614432738       25.5574158999        9.4428994568
  C        47.2613540499       24.4423124789        8.6994022157
  C        14.8604109582        8.5706762298        8.7035271923
  C        14.8917499539        8.5970452306       11.5151400641
  C        49.1132266766       21.2035027018        2.1504936860
  C        48.5278682103       22.3647970496        2.8777121452
  C        49.2671685830       23.0256922656        3.8704529588
  C        48.6908116232       24.0602130946        4.6019335968
  C        47.3603548352       24.4568834199        4.3637596567
  C        46.6398466419       23.8117830554        3.3404271823
  C        47.2134277798       22.7758990945        2.6086414576
  C        46.7219064276       25.5318524757        5.1547784146
  C        46.7336501712       25.5282167065        6.5764757703
  C        47.2491067242       24.4290104286        7.3328510298
  C        40.6337502274       17.1582363417        7.3293511019
  C        40.6537097064       17.1790924647        4.5206254635
  C        11.8829342272       14.0864773050        2.2905653565
  C        12.4722491512       12.9106391124        2.9947632676
  C        11.7147557396       12.1775082644        3.9209445563
  C        12.2813499249       11.0950656113        4.5893826175
  C        13.6201299771       10.7212476904        4.3574712423
  C        14.3580359621       11.4366905068        3.3965200375
  C        13.7926085898       12.5178432745        2.7238078148
  C        14.2537751379        9.6245548147        5.1279156527
  C        14.2525823444        9.6446032131        6.5497519662
  C        13.7426334583       10.7535274323        7.2968111639
  C        22.5121050753        3.2443957273       13.7480116973
  C        23.2274299810        4.3493912311       13.0485285265
  C        24.2231296961        4.0684788811       12.1012408955
  C        24.8510776197        5.1074499213       11.4191877891
  C        24.4990093790        6.4496335335       11.6641380533
  C        23.5315994283        6.7220579880       12.6485279490
  C        22.8989958091        5.6848657616       13.3290071024
  C        25.1054009155        7.5555262615       10.8880325789
  C        25.0758986998        7.5488858238        9.4665019031
  C        24.3710692922        6.5508241278        8.7212640336
  C        38.3026688192       31.9300020314       13.8443242798
  C        37.5730424634       30.8403560799       13.1354933836
  C        36.6114968229       31.1436116975       12.1595482097
  C        35.9946751207       30.1228142302       11.4417782176
  C        36.3250112513       28.7741205809       11.6785100205
  C        37.2567464358       28.4782460471       12.6911393662
  C        37.8775027254       29.4977235519       13.4079031768
  C        35.7234265370       27.6823192796       10.8811980923
  C        35.7532148948       27.6986539649        9.4599639131
  C        36.4580892200       28.7020838565        8.7232252862
  C        25.6995309812        8.6179888594        8.7458112303
  C        25.7046920754        8.6295815734       11.5579985022
  C        38.3290874267       31.9624592826        2.1615277389
  C        37.6077623130       30.8897349479        2.9040183253
  C        36.6788206299       31.1991989584        3.9092160698
  C        36.0685878856       30.1811938211        4.6392397021
  C        36.3731277783       28.8285179154        4.3873591626
  C        37.2798810139       28.5290087127        3.3522241486
  C        37.8922124936       29.5435036014        2.6234794174
  C        35.7647183689       27.7297502039        5.1714119067
  C        35.7742520721       27.7230798074        6.5933579903
  C        36.4678839325       28.7139422377        7.3567308558
  C        46.1356940260       26.6208862185        7.2865986002
  C        46.0879420913       26.5801949769        4.4787147237
  C        22.4604123253        3.2556550348        2.2626888402
  C        23.1536185959        4.3644105941        2.9859108606
  C        24.1541589123        4.0784120884        3.9283261441
  C        24.7813386147        5.1087031047        4.6246266750
  C        24.4280210071        6.4545052287        4.4009445373
  C        23.4505842228        6.7337477230        3.4270516550
  C        22.8186503978        5.7036790281        2.7313701202
  C        25.0587242676        7.5526477440        5.1747953258
  C        25.0524303719        7.5467333012        6.5975682223
  C        24.3579950281        6.5509528399        7.3546284434
  C        26.6173525337       17.8591528735       13.7785504769
  C        25.3116765517       17.9016506795       13.0515482617
  C        25.0423984434       18.9055251743       12.1075810236
  C        23.8303134270       18.9208674515       11.4200815307
  C        22.8487857167       17.9370244118       11.6565723157
  C        23.1131245703       16.9559152690       12.6308823804
  C        24.3280763879       16.9341076584       13.3145027982
  C        21.5756156604       17.9217531718       10.8921263923
  C        21.5768105638       17.9056194259        9.4696263886
  C        22.7831558275       17.7891009386        8.7091279480
  C        34.4416580693       17.1939945867       13.9173794492
  C        35.7352770047       17.1458430341       13.1761746196
  C        35.9374917465       16.1884380936       12.1700288947
  C        37.1160365286       16.1842827727       11.4296342367
  C        38.1250951113       17.1346544623       11.6786870990
  C        37.9266734038       18.0707295417       12.7114441689
  C        36.7441896179       18.0822687691       13.4469082499
  C        39.3786398830       17.1504028152       10.8922769664
  C        39.3747030541       17.1739285483        9.4708874300
  C        38.1682842869       17.3029009300        8.7131127344
  C        20.3304860710       17.9230223164        8.7607113010
  C        20.3508903272       17.9216099598       11.5743569907
  C        34.4767295654       17.2465604541        2.1875251810
  C        35.7786161207       17.1752454524        2.9109994433
  C        35.9867473072       16.2038549256        3.9014771542
  C        37.1719240962       16.1906462255        4.6311525416
  C        38.1765701964       17.1473708003        4.3885293058
  C        37.9744046903       18.0931542449        3.3662084079
  C        36.7868846918       18.1123857027        2.6402011689
  C        39.4224013364       17.1703926170        5.1846268014
  C        39.3973398119       17.1848823100        6.6055301321
  C        38.1794718736       17.3065603690        7.3464251884
  C        35.1436314962       26.6436898067        7.2969444756
  C        35.1747211381       26.6593619767        4.4879012759
  C        26.5722647889       17.8282106592        2.3278988262
  C        25.2554803717       17.8737487711        3.0321759431
  C        24.9861845313       18.8854100469        3.9663080764
  C        23.7691647411       18.9095943367        4.6419226194
  C        22.7915375831       17.9226030915        4.4054079806
  C        23.0542067985       16.9363589462        3.4375587486
  C        24.2724922943       16.9097466065        2.7611099317
  C        21.5282276008       17.9035750132        5.1793538040
  C        21.5521948663       17.8950474632        6.6008420761
  C        22.7711176902       17.7840241602        7.3427707364
  C        14.0463910862       17.8286896824        2.2937958322
  C        15.3509304803       17.8851471258        3.0190086712
  C        15.6078606132       18.8874852063        3.9673814044
  C        16.8169361429       18.9073185068        4.6601369335
  C        17.8030930391       17.9276626846        4.4263733882
  C        17.5510128567       16.9496333389        3.4458179012
  C        16.3413248996       16.9251411275        2.7548463632
  C        19.0721672232       17.9096971357        5.1951598105
  C        19.0708092612       17.9050434428        6.6175494076
  C        17.8637118459       17.8040449319        7.3784337716
  C        46.8062503262       17.2204447831        2.1652099940
  C        45.5184732046       17.1648131732        2.9137675963
  C        45.3128951680       16.1943554339        3.9064334029
  C        44.1329329429       16.1846178832        4.6453428287
  C        43.1293744598       17.1451605223        4.4125198879
  C        43.3323398307       18.0950642457        3.3933904926
  C        44.5129888683       18.1090826994        2.6559414792
  C        41.8768071205       17.1639885076        5.2007006600
  C        41.8813176067       17.1673244750        6.6223064424
  C        43.0897493886       17.2601431654        7.3819307425
  C        20.3175083218       17.9166793063        7.3258729351
  C        20.2962975401       17.8910720535        4.5128265609
  C        46.7859990475       17.2310506570       13.8853258046
  C        45.4820754740       17.1274457962       13.1725451198
  C        45.2623642588       16.1351528841       12.2054084475
  C        44.0739059552       16.1147893732       11.4799751319
  C        43.0767867245       17.0834990405       11.7054388858
  C        43.2859603860       18.0437357706       12.7126572504
  C        44.4755734240       18.0708788637       13.4327333465
  C        41.8320050770       17.1152753519       10.9078235304
  C        41.8585569778       17.1407145785        9.4873992389
  C        43.0789485310       17.2450718905        8.7483312366
  C        46.1534139247       26.6372780167        8.7211432349
  C        46.1623855057       26.6560957678       11.5307839226
  C        14.0449608073       17.8303515976       13.7029751033
  C        15.3655487894       17.9010994288       13.0109309331
  C        15.6415563628       18.9158954952       12.0825373559
  C        16.8706521968       18.9499269338       11.4276461331
  C        17.8511600738       17.9681327369       11.6752870749
  C        17.5817975899       16.9817659515       12.6413551575
  C        16.3548091104       16.9473465812       13.2998368350
  C        19.1186991341       17.9414190574       10.9068909947
  C        19.0952648028       17.9197670543        9.4853907689
  C        17.8755952249       17.8105861875        8.7444320648
  C        28.8093730488       14.0910722525        2.3962591396
  C        28.1956337216       12.9168269885        3.0819068180
  C        28.9186037973       12.1745007544        4.0272324226
  C        28.3188719119       11.0994072875        4.6780358521
  C        26.9819925063       10.7434049142        4.4082938106
  C        26.2807914324       11.4658104158        3.4261472776
  C        26.8785293416       12.5407425017        2.7731062111
  C        26.3126007630        9.6643124786        5.1702342581
  C        26.3023923509        9.6902301915        6.5913691025
  C        26.8098763408       10.8016877880        7.3363633024
  C        32.1794308375       21.2432758226        2.1487052627
  C        32.7738567090       22.4104903397        2.8657334421
  C        32.0253757088       23.0881471403        3.8404109557
  C        32.5960214178       24.1264740643        4.5700522721
  C        33.9307528895       24.5151951922        4.3454523268
  C        34.6616548748       23.8566319672        3.3387237518
  C        34.0934426362       22.8125556205        2.6111972773
  C        34.5594980682       25.5896438291        5.1469970388
  C        34.5509414045       25.5606697520        6.5686792349
  C        34.0405908507       24.4460391317        7.3064618966
  C        25.6919960193        8.6133801594        7.3111487654
  C        25.6740766087        8.6142590011        4.4977817074
  C        32.1065389174       21.2294256471       13.8841505049
  C        32.6981530191       22.3810251502       13.1404216562
  C        31.9613179875       23.0410481628       12.1447135892
  C        32.5415530912       24.0684268537       11.4042016923
  C        33.8717910120       24.4662509987       11.6425163667
  C        34.5911177738       23.8196341385       12.6658348267
  C        34.0161668673       22.7859943162       13.4007465569
  C        34.5109802439       25.5474164800       10.8574436817
  C        34.5250546197       25.5395079120        9.4355577263
  C        34.0272980091       24.4363032964        8.6730966519
  C        40.6218139553       17.1487020371        8.7632570302
  C        40.6013309987       17.1381513179       11.5725518111
  C        28.7446685739       14.0680653636       13.8118402964
  C        28.1364271237       12.9225437699       13.0720044685
  C        28.8700777347       12.2297903056       12.0966974547
  C        28.2893312946       11.1732401966       11.3993060592
  C        26.9588633443       10.7824463638       11.6517825327
  C        26.2422807474       11.4631027842       12.6540715604
  C        26.8212022885       12.5202235141       13.3532114527
  C        26.3168870734        9.6916869312       10.8798243840
  C        26.3061768810        9.7044771183        9.4579249202
  C        26.8093239261       10.8097163250        8.7021482182
  C        18.1354454062        3.1809936381        2.3222623970
  C        17.4061469783        4.2782498642        3.0208999986
  C        16.3904238602        3.9998879780        3.9484035325
  C        15.7426947953        5.0398760466        4.6118944321
  C        16.0946363902        6.3835860017        4.3722199445
  C        17.0840538478        6.6531017932        3.4084956061
  C        17.7331516978        5.6157574089        2.7434552627
  C        15.4703252810        7.4912972618        5.1352515204
  C        15.4856575440        7.4906515060        6.5569607612
  C        16.1872893681        6.4970925170        7.3101357389
  C        42.9459168369       31.8595315344        2.0780182435
  C        43.6463115490       30.7718810501        2.8219576875
  C        44.5919125735       31.0932176729        3.8079561511
  C        45.1976334950       30.0876704792        4.5556030424
  C        44.8711631218       28.7346114264        4.3407833192
  C        43.9452326098       28.4202588270        3.3276727981
  C        43.3364029527       29.4253990035        2.5796445255
  C        45.4887256059       27.6553140313        5.1439830801
  C        45.4929799213       27.6810022129        6.5656728241
  C        44.8058878086       28.6890460363        7.3122964712
  C        14.8566547400        8.5631339575        7.2693055876
  C        14.8749708035        8.5630040115        4.4566399289
  C        42.9464656556       31.9615926917       13.8038502387
  C        43.6916657417       30.8854788784       13.0903365647
  C        44.6563229365       31.1913880324       12.1180988829
  C        45.2778835775       30.1717993878       11.4004124685
  C        44.9540504466       28.8214820837       11.6379814146
  C        44.0205055125       28.5238147717       12.6487007814
  C        43.3922126823       29.5405793886       13.3608487443
  C        45.5631098187       27.7241022890       10.8527269792
  C        45.5334619594       27.7174461185        9.4314288239
  C        44.8271402096       28.7076806777        8.6784803924
  C        35.1317872353       26.6320057150        8.7316559674
  C        35.1213101180       26.6055234506       11.5414287154
  C        18.1486108635        3.2469984088       13.7014745042
  C        17.4299989863        4.3438535096       12.9922027558
  C        16.4147906698        4.0525947611       12.0686344272
  C        15.7664852355        5.0832313133       11.3932440207
  C        16.1211331400        6.4284592666       11.6160116179
  C        17.1124996266        6.7118300907       12.5732794094
  C        17.7601762097        5.6829112966       13.2530340957
  C        15.4906692003        7.5241653739       10.8435528691
  C        15.4966526588        7.5075892826        9.4224192686
  C        16.1934738245        6.5059104506        8.6757408189
  H        10.6724547204       12.4659891122       11.8992441926
  H        11.6946790107       10.5511966838       10.6573459476
  H        15.3914728548       11.1682845235       12.7674297463
  H        14.3509702794       13.0710659450       14.0127092650
  H        13.3760849095       11.6311638214        9.1961627482
  H        50.3228699808       22.7486400051       11.9819048149
  H        49.3197000736       24.6231122433       10.6758957134
  H        45.6420262175       24.1609250756       12.8583402992
  H        46.6629248132       22.2900007780       14.1665646786
  H        47.6298273158       23.5759126905        9.2410945466
  H        14.8719842634        8.5882393042       12.6034451177
  H        50.2872623123       22.7029457121        4.0652717508
  H        49.2692306965       24.5758005248        5.3653275581
  H        45.6103858429       24.1089046113        3.1514802962
  H        46.6525168653       22.2535927776        1.8372420339
  H        47.6078099624       23.5518576610        6.8019577820
  H        40.6603814897       17.1414193274        3.4330004348
  H        48.6869159835       14.0949185572       15.7948661063
  H        10.6813036266       12.4666258501        4.0983940255
  H        11.6895601479       10.5246971344        5.3021027989
  H        15.3934244336       11.1587045047        3.2104933052
  H        14.3648990631       13.0871521071        1.9951921407
  H        13.3757137895       11.6220940348        6.7581607740
  H        47.9301829121       14.2179159986        1.7161166659
  H        47.7800192201       14.3731393261       14.4898528405
  H        49.0839924852       18.5526448297        2.8726373551
  H        10.4159300026       14.1342948140        0.0038034803
  H        24.4825859549        3.0296296635       11.9098039290
  H        25.6232322234        4.8892796124       10.6846088114
  H        23.2523021934        7.7552881445       12.8440789160
  H        22.1298185898        5.8858966317       14.0707000028
  H        23.8093893663        5.7948949310        9.2622717159
  H        36.3727030980       32.1866244353       11.9656085907
  H        35.2486801385       30.3608211078       10.6867203087
  H        37.5189817954       27.4394071368       12.8805600445
  H        38.6226827931       29.2778247999       14.1686865381
  H        37.0230483805       29.4516926166        9.2696111652
  H        25.7410329070        8.6123012022       12.6457750910
  H        36.4559556005       32.2435588249        4.1157196559
  H        35.3426469558       30.4264153145        5.4113133449
  H        37.5267920943       27.4886210103        3.1513235659
  H        38.6147775664       29.3174907884        1.8431253969
  H        37.0414616927       29.4722639075        6.8315756250
  H        46.1092787879       26.5875394878        3.3906771247
  H        44.6682826384       35.1161760666       15.8088158790
  H        24.4311646167        3.0401530388        4.0964691094
  H        25.5610498592        4.8801108230        5.3480585250
  H        23.1665520025        7.7683052482        3.2453515849
  H        22.0481876127        5.9162382280        1.9938150403
  H        23.7856014840        5.7956548328        6.8239438009
  H        44.9538644049       34.3904037128        1.7002761433
  H        44.9017695766       34.2067942013       14.4854868266
  H        40.6659634690       33.2090836267        2.8582464864
  H        23.1504693560        1.9578123034        0.0103713839
  H        25.7913667718       19.6738166049       11.9296991312
  H        23.6273126216       19.7056068417       10.6943896551
  H        22.3669678231       16.1875076206       12.8228920444
  H        24.5426413788       16.1631967365       14.0510244280
  H        23.7242962258       17.6733011950        9.2388102694
  H        35.1544626646       15.4585939639       11.9785262653
  H        37.2712157201       15.4359834671       10.6555693832
  H        38.6987385195       18.8119173023       12.9074517729
  H        36.5726221195       18.8207130785       14.2266832056
  H        37.2279636632       17.4271415916        9.2428280561
  H        20.3573123290       17.9588253497       12.6623245782
  H        35.2002953810       15.4782131217        4.0959070730
  H        37.3333170339       15.4350583033        5.3968526195
  H        38.7444976072       18.8377128710        3.1753705494
  H        36.6075933234       18.8605145027        1.8716508102
  H        37.2479742564       17.4333221765        6.8023476360
  H        35.1474303495       26.6855233344        3.4002084655
  H        28.5085233433       21.0845916975       15.9711740823
  H        25.7436781800       19.6456332998        4.1434660269
  H        23.5599689570       19.6980577834        5.3617456017
  H        22.3072700614       16.1678960289        3.2490429865
  H        24.4918419881       16.1363461289        2.0288461750
  H        23.7027613034       17.6641050006        6.7978069637
  H        29.0098791749       21.7195374122        1.7620976249
  H        29.1535820052       21.7468551754       14.6114987198
  H        32.0982419582       18.5756618171        2.9833440678
  H        27.4043489559       19.0763811306        0.0885925370
  H        14.8495900141       19.6465282364        4.1463367696
  H        17.0125588787       19.6907148355        5.3892192428
  H        18.3020680755       16.1854371965        3.2563912612
  H        16.1348545393       16.1567751417        2.0135978398
  H        16.9214515275       17.6884518638        6.8507138254
  H        46.0947049248       15.4615423895        4.0918283269
  H        43.9731649371       15.4244668063        5.4068391137
  H        42.5651481265       18.8444437215        3.2100116405
  H        44.6869192590       18.8568190480        1.8857705531
  H        44.0319065457       17.3744066177        6.8534821400
  H        20.2902364648       17.9207401585        3.4246971548
  H        46.0386869036       15.3955013872       12.0232875236
  H        43.9055302137       15.3459991574       10.7289959246
  H        42.5200071407       18.7950404877       12.8931583144
  H        44.6600240955       18.8319213852       14.1868743432
  H        44.0129040271       17.3464542292        9.2934549251
  H        46.1991716533       26.6825943711       12.6182325920
  H        52.7411236963       21.0626016867        0.1997979216
  H        14.8831756017       19.6718666606       11.8910454601
  H        17.0839895123       19.7399852227       10.7108389968
  H        18.3300297754       16.2171756037       12.8400161914
  H        16.1314306970       16.1732223424       14.0299084802
  H        16.9422533786       17.7001760851        9.2882805148
  H        52.3223206210       21.6732094228       14.2891929394
  H        52.0130981648       21.7019531051        1.5007652368
  H        49.0673354307       18.6078278511       13.1991475781
  H        13.2475305002       19.0162344024       15.9719970113
  H        29.9477398270       12.4553198554        4.2393090039
  H        28.8811449357       10.5230213994        5.4095115515
  H        25.2477694866       11.2006646357        3.2105468462
  H        26.3349739514       13.1200919777        2.0308219168
  H        27.1754310572       11.6691442257        6.7951669796
  H        31.0002288075       22.7746782028        4.0219679299
  H        32.0106990098       24.6507998769        5.3222619455
  H        35.6947560666       24.1477284257        3.1600196694
  H        34.6634352992       22.2778221363        1.8548534943
  H        33.6830808330       23.5782588613        6.7595686050
  H        25.7026275009        8.5948775737        3.4097443816
  H        30.9355957049       22.7292045475       11.9602572437
  H        31.9639126696       24.5815913996       10.6384045254
  H        35.6208381107       24.1159773599       12.8549211562
  H        34.5768612969       22.2638205265       14.1725904047
  H        33.6599141762       23.5605434379        9.2004990739
  H        40.5936187301       17.0910541405       12.6598282081
  H        32.5137843743       14.1492201009        0.2627308970
  H        29.8977063706       12.5289316372       11.9036704093
  H        28.8668497767       10.6319136749       10.6530758078
  H        25.2128731747       11.1742407852       12.8561340653
  H        26.2648971061       13.0605962977       14.1154875795
  H        27.1730894348       11.6838842280        9.2340663090
  H        33.3020759633       14.2091742077       14.4449951134
  H        33.4094411324       14.4004458887        1.6120967187
  H        32.1755083856       18.5461223710       13.1945230927
  H        30.2268576407       14.1928515449        0.0789507368
  H        16.1183260494        2.9633810840        4.1347440963
  H        14.9531964627        4.8205020428        5.3275049299
  H        17.3664914884        7.6859776379        3.2154003195
  H        18.5151964679        5.8183729679        2.0156056885
  H        16.7538540542        5.7397609743        6.7766320683
  H        44.8282584419       32.1402940079        3.9820869783
  H        45.9375728629       30.3414096177        5.3114799407
  H        43.6824712655       27.3781962877        3.1576146673
  H        42.5997351537       29.1900543646        1.8150330981
  H        44.2305398255       29.4368061542        6.7739751015
  H        14.8511425138        8.5461646583        3.3684223782
  H        44.8999317005       32.2340624138       11.9267055376
  H        46.0248324892       30.4130342848       10.6472197029
  H        43.7634920614       27.4840869633       12.8402086135
  H        42.6457067268       29.3177610926       14.1192794866
  H        44.2686276356       29.4705720582        9.2130528965
  H        35.0802094330       26.6169398166       12.6289560137
  H        36.6051072712       35.1340843193        0.1857829673
  H        16.1437156781        3.0130159373       11.8989091980
  H        14.9741579025        4.8563952270       10.6831579322
  H        17.3959842025        7.7472985963       12.7501946073
  H        18.5430567241        5.8933295499       13.9778011025
  H        16.7649135929        5.7556907773        9.2142027478
  H        36.2785245710       34.4825682536       14.2680629017
  H        36.3809741886       34.2091537121        1.5047718818
  H        40.5802701419       33.2025374721       13.1484431481
  H        17.4707264982        1.9473530344       15.9690430671
  H        29.2129644949       19.5251732505        4.5430206002
  H        28.7598681402       19.1581892386       11.8323420145
  H        30.8923198470       15.4658774809       11.7079236252
  H        31.0921334918       15.5690497440        4.4752168435
  H        28.2070817020       18.5057436437        6.9341498891
  H        29.1367142676       15.6432420203        6.6044720832
  H        31.1673747639       19.7205615268       10.2719015277
  H        32.5935811050       17.7222331512        9.4895500999
  H        29.0956319845       15.8561043425        9.4778797864
  H        18.8540000751        0.8692107464        4.3404575307
  H        40.5279419560       35.2290902613       11.9469465512
  H        42.3241898773       34.4191211000       11.5852669233
  H        22.0879176381        0.6923325193        4.3565760238
  H        11.5969224024       18.7132598837        4.3877262275
  H        52.2648680057       18.4311286198       11.6721034533
  H        49.2551927661       16.4771996684       11.5795351980
  H        10.1509341043       15.7980542471        4.2974531909
  H        50.8499813095       17.6923669448       11.9492258450
  H        10.0464667610       17.3944242912        4.0570930640
  H        20.2153913956        0.0024360461        4.0470324382
  H        39.1836465934       36.1244396592       11.6812805818
 Ni        30.3078806325       17.5908771982       10.9086676786
 Ni        30.9910033476       16.4726424284        8.0778592758
 Ni        30.1829484230       18.8411964775        8.2436484583
 Ni        30.3053442217       17.6001414677        5.3313172447
  O        10.6499121986       14.3651057713       13.4807080405
  O        12.6131629473       14.6574973220       14.5787788849
  O        49.1481472835       16.8459255767       15.9846479134
  O        50.3502610032       20.9359206500       13.6430033706
  O        48.3485796562       20.5933621572       14.6608332173
  O        11.0516693503       17.0539098154       14.4955205573
  O        50.3210828793       20.8816724958        2.4119332568
  O        48.3467856589       20.5868283886        1.3322796370
  O        49.5437559009       18.2484437643        2.0734625665