     574
 i =      249, E =     -4778.8949041857
  C        11.8586633014       14.0535988376       13.7364771863
  C        12.4562244517       12.8906402067       13.0181463841
  C        11.7045810737       12.1717709740       12.0764157130
  C        12.2809599464       11.1095663196       11.3840534533
  C        13.6215043321       10.7397285789       11.6118741676
  C        14.3546176733       11.4431966003       12.5854541920
  C        13.7817066061       12.5081669994       13.2769587342
  C        14.2611041334        9.6490835371       10.8385055735
  C        14.2564501874        9.6570024272        9.4168035034
  C        13.7433484863       10.7591535547        8.6628898260
  C        49.1266116037       21.2332851535       13.8746606825
  C        48.5497900482       22.4011349977       13.1475430209
  C        49.2998983179       23.0685743896       12.1666799394
  C        48.7329706312       24.1076848479       11.4334524688
  C        47.4023478298       24.5091611979       11.6618914578
  C        46.6712753901       23.8601201670       12.6752061841
  C        47.2337288439       22.8152380410       13.4045954095
  C        46.7721694907       25.5868929270       10.8646150687
  C        46.7613357835       25.5573687661        9.4428510029
  C        47.2612888509       24.4422815122        8.6993641870
  C        14.8604614431        8.5707018485        8.7035409193
  C        14.8917797407        8.5970695759       11.5151499681
  C        49.1131413159       21.2034156410        2.1504410877
  C        48.5277767551       22.3647472650        2.8776073304
  C        49.2670804786       23.0256358362        3.8703566266
  C        48.6907574874       24.0601919560        4.6018126654
  C        47.3602628781       24.4568000335        4.3637405056
  C        46.6397698031       23.8117588578        3.3403627468
  C        47.2133242514       22.7758425041        2.6085896297
  C        46.7218654149       25.5318277900        5.1547328124
  C        46.7336636464       25.5282296514        6.5764362314
  C        47.2490682504       24.4289984097        7.3328118244
  C        40.6216126664       17.0886780414        7.3150351311
  C        40.6319377129       17.1053210219        4.5053053396
  C        11.8828672693       14.0865719795        2.2905828313
  C        12.4722084297       12.9107053963        2.9948063990
  C        11.7147387244       12.1775895269        3.9210099521
  C        12.2813368761       11.0951357871        4.5894350678
  C        13.6201204709       10.7213417763        4.3575298060
  C        14.3580152297       11.4367956202        3.3965849389
  C        13.7925876936       12.5179665769        2.7238882194
  C        14.2537558774        9.6246011802        5.1279376319
  C        14.2526151293        9.6446354291        6.5497788264
  C        13.7427660974       10.7536026835        7.2968435231
  C        22.5115576459        3.2445270721       13.7471103295
  C        23.2257190382        4.3490939400       13.0452325418
  C        24.2230607785        4.0670186230       12.0999943800
  C        24.8510615235        5.1049105901       11.4162623059
  C        24.4972842212        6.4473723200       11.6572137216
  C        23.5274601659        6.7210353648       12.6390032563
  C        22.8950388212        5.6848927952       13.3213627065
  C        25.1055985772        7.5524724637       10.8812145389
  C        25.0837578231        7.5434853639        9.4594241272
  C        24.3843269555        6.5435308310        8.7115783659
  C        38.3010845320       31.9292125554       13.8447639380
  C        37.5676960180       30.8407610797       13.1372670350
  C        36.6038695338       31.1467578802       12.1641922639
  C        35.9822106108       30.1282113423       11.4473020065
  C        36.3099480297       28.7782957744       11.6809857826
  C        37.2437865383       28.4796401806       12.6910718093
  C        37.8691454614       29.4969494328       13.4073924065
  C        35.7058142836       27.6884617648       10.8819750190
  C        35.7358927831       27.7066845024        9.4604644577
  C        36.4387839702       28.7121367961        8.7245219128
  C        25.7091364660        8.6127888581        8.7404584488
  C        25.6996802267        8.6287765484       11.5526650163
  C        38.3289004380       31.9629110065        2.1613540299
  C        37.6064022748       30.8915225544        2.9039402811
  C        36.6748294639       31.2031742350        3.9060565396
  C        36.0621766653       30.1867745340        4.6360698097
  C        36.3672693861       28.8336659089        4.3874700540
  C        37.2770453789       28.5319616021        3.3556081151
  C        37.8915384342       29.5448439867        2.6265739278
  C        35.7564010000       27.7362633573        5.1711153500
  C        35.7615786306       27.7313266429        6.5931318324
  C        36.4506980644       28.7242702116        7.3579875044
  C        46.1356860378       26.6208870673        7.2865618228
  C        46.0878447749       26.5801340495        4.4786633869
  C        22.4626432468        3.2555968300        2.2616566435
  C        23.1614303255        4.3636057074        2.9817766701
  C        24.1684961997        4.0758767263        3.9167927974
  C        24.8010369781        5.1048021598        4.6105224224
  C        24.4464455326        6.4511356732        4.3922721478
  C        23.4626145850        6.7322323573        3.4253863373
  C        22.8257377747        5.7035386363        2.7317974856
  C        25.0794616414        7.5478013250        5.1671134012
  C        25.0713667125        7.5402850781        6.5899390786
  C        24.3766249028        6.5430025801        7.3448903816
  C        26.6201025840       17.8635705363       13.7780144651
  C        25.3118833557       17.9090374986       13.0539858128
  C        25.0431984421       18.9153444867       12.1127219328
  C        23.8306195426       18.9338142997       11.4258964150
  C        22.8484939911       17.9500710425       11.6600367733
  C        23.1120641435       16.9666486440       12.6320627870
  C        24.3272993884       16.9424258118       13.3154032253
  C        21.5753248606       17.9361606415       10.8951618225
  C        21.5761736438       17.9180553747        9.4727030232
  C        22.7826486867       17.7982875251        8.7132183166
  C        34.4421028662       17.1944572908       13.9179775234
  C        35.7363728317       17.1433923626       13.1750183197
  C        35.9422542716       16.1674278006       12.1874624434
  C        37.1207060668       16.1530918607       11.4468077733
  C        38.1259773349       17.1129385258       11.6741357494
  C        37.9232694056       18.0693887050       12.6871171454
  C        36.7415014176       18.0894242459       13.4248817987
  C        39.3782644720       17.1179612558       10.8836796958
  C        39.3701201489       17.1212508121        9.4616958048
  C        38.1607983918       17.2387900660        8.7064494831
  C        20.3301704374       17.9350657163        8.7630732588
  C        20.3502693708       17.9368420775       11.5766641405
  C        34.4415297473       17.2379672216        2.1918258020
  C        35.7440696794       17.1371864290        2.9130839041
  C        35.9526690952       16.1525326814        3.8901519539
  C        37.1422001354       16.1223443416        4.6140455815
  C        38.1525848101       17.0758106239        4.3803002425
  C        37.9507698830       18.0329845518        3.3685319422
  C        36.7603786746       18.0680886477        2.6482661631
  C        39.4020892202       17.0912129196        5.1734238197
  C        39.3822425853       17.1078020384        6.5948000176
  C        38.1666915698       17.2305961698        7.3396585798
  C        35.1320521790       26.6508439162        7.2958413907
  C        35.1697303869       26.6645961744        4.4865597665
  C        26.5733375805       17.8276841235        2.3309063925
  C        25.2582465738       17.8736939973        3.0379705325
  C        24.9954704842       18.8774047008        3.9824090242
  C        23.7774780115       18.9042712533        4.6559228093
  C        22.7929316706       17.9264755405        4.4093642839
  C        23.0501178330       16.9475593321        3.4325183710
  C        24.2686461788       16.9193031530        2.7567366191
  C        21.5292107596       17.9087685642        5.1822085794
  C        21.5526602183       17.9014588219        6.6038278025
  C        22.7708742371       17.7892903125        7.3469416415
  C        14.0466983396       17.8288837224        2.2939839968
  C        15.3512964072       17.8862007253        3.0194050717
  C        15.6078667319       18.8897550849        3.9666824087
  C        16.8168771594       18.9111061669        4.6595755125
  C        17.8037840012       17.9317389922        4.4274492433
  C        17.5519217265       16.9522890111        3.4481658671
  C        16.3423319312       16.9263794276        2.7568273004
  C        19.0728321735       17.9154149269        5.1968036464
  C        19.0710961741       17.9133099863        6.6193317062
  C        17.8637700762       17.8144375555        7.3800968363
  C        46.8026435986       17.2163209467        2.1620720786
  C        45.5095509294       17.1466310873        2.9026514878
  C        45.3044147073       16.1631013215        3.8828381546
  C        44.1205865007       16.1359651589        4.6153436345
  C        43.1109226410       17.0921816318        4.3905443204
  C        43.3126918808       18.0544413084        3.3824726042
  C        44.4974275930       18.0854974161        2.6506412631
  C        41.8579453894       17.0969181095        5.1807786689
  C        41.8667571292       17.1001857128        6.6029731002
  C        43.0773363476       17.1986165464        7.3586930292
  C        20.3176260591       17.9257593809        7.3281835511
  C        20.2973379942       17.8960362772        4.5151644460
  C        46.7852996358       17.2322171366       13.8815923590
  C        45.4841352746       17.1278613207       13.1617959087
  C        45.2669225576       16.1285931320       12.2008282669
  C        44.0800510378       16.1008240146       11.4725730134
  C        43.0803082619       17.0695319013       11.6873670935
  C        43.2886653333       18.0397419732       12.6856067900
  C        44.4764539588       18.0736289726       13.4093509236
  C        41.8328719746       17.0882864742       10.8917397988
  C        41.8541492403       17.0945446569        9.4704742615
  C        43.0714074355       17.1929620592        8.7254571686
  C        46.1533978084       26.6372914438        8.7211075852
  C        46.1621839447       26.6559804344       11.5307544754
  C        14.0450676583       17.8316093579       13.7037514825
  C        15.3658729583       17.9057840704       13.0130116382
  C        15.6394070390       18.9219681265       12.0853689809
  C        16.8682748440       18.9593279218       11.4303814146
  C        17.8509470161       17.9796090720       11.6774003041
  C        17.5842625080       16.9922676024       12.6432631459
  C        16.3574056582       16.9544062648       13.3017156455
  C        19.1182304251       17.9553825101       10.9087878483
  C        19.0947423531       17.9330760025        9.4873210238
  C        17.8752966912       17.8232594492        8.7460855641
  C        28.7913807771       14.1150492554        2.4019254838
  C        28.1899815341       12.9369660106        3.0913002285
  C        28.9218364724       12.1889365462        4.0249894485
  C        28.3307513012       11.1060715094        4.6715013175
  C        26.9929306156       10.7476565351        4.4087780831
  C        26.2824504907       11.4765071101        3.4383137800
  C        26.8718746208       12.5585270627        2.7896433413
  C        26.3298822694        9.6616140914        5.1671880185
  C        26.3179880819        9.6857025571        6.5880970105
  C        26.8212810021       10.7980905328        7.3345822715
  C        32.1802824681       21.2422867390        2.1489030831
  C        32.7740566458       22.4106050669        2.8659555531
  C        32.0206593224       23.0977092150        3.8304241469
  C        32.5898179768       24.1370442341        4.5598268397
  C        33.9284466817       24.5182415716        4.3442597489
  C        34.6641510927       23.8511505627        3.3471959793
  C        34.0970960537       22.8056648165        2.6204346089
  C        34.5547959945       25.5947051572        5.1451584059
  C        34.5443019002       25.5658687336        6.5665034795
  C        34.0395615663       24.4477666780        7.3026691209
  C        25.7075238696        8.6074582285        7.3057809623
  C        25.6940868256        8.6113586119        4.4922298835
  C        32.1128918098       21.1970070473       13.8441001075
  C        32.6963799726       22.3567533897       13.1070879981
  C        31.9625286032       23.0110359533       12.1056695272
  C        32.5362864610       24.0520193263       11.3797512718
  C        33.8586292330       24.4658753661       11.6345689335
  C        34.5743865789       23.8248900153       12.6637503903
  C        34.0042314442       22.7809986171       13.3875257607
  C        34.4956077789       25.5516946282       10.8546010305
  C        34.5136403974       25.5440175972        9.4326363595
  C        34.0245775749       24.4373222495        8.6691930970
  C        40.6148868407       17.0907811739        8.7498282448
  C        40.6035703344       17.1177810263       11.5598089637
  C        28.7208583602       14.0965212135       13.7800532517
  C        28.1160074831       12.9427359745       13.0496185898
  C        28.8581410582       12.2375109990       12.0898442172
  C        28.2834755926       11.1715062930       11.4019076946
  C        26.9503133492       10.7854851878       11.6469501376
  C        26.2258865409       11.4771178725       12.6358084812
  C        26.7998035874       12.5420593048       13.3276092254
  C        26.3136169312        9.6906488543       10.8760903914
  C        26.3102119222        9.7011112872        9.4542224725
  C        26.8149963402       10.8068383299        8.7002143974
  C        18.1354057832        3.1809858414        2.3222086870
  C        17.4060084647        4.2782465790        3.0207319303
  C        16.3906116344        3.9998513091        3.9485912173
  C        15.7428485306        5.0398057925        4.6120940092
  C        16.0944586500        6.3835611238        4.3721478136
  C        17.0834746392        6.6531164335        3.4080111954
  C        17.7325985454        5.6157929279        2.7429620656
  C        15.4701951550        7.4912565168        5.1352328518
  C        15.4856412229        7.4906519618        6.5569463355
  C        16.1872233548        6.4970683284        7.3101368324
  C        42.9458523272       31.8594552137        2.0779783348
  C        43.6462028604       30.7718304018        2.8219213147
  C        44.5917658465       31.0931594890        3.8079680867
  C        45.1974975940       30.0876136053        4.5555937459
  C        44.8710583219       28.7345442868        4.3407462633
  C        43.9451468426       28.4201962168        3.3276131518
  C        43.3363120817       29.4253412445        2.5795930881
  C        45.4886995232       27.6552898207        5.1439440822
  C        45.4928987852       27.6809538366        6.5656335736
  C        44.8058471981       28.6890292897        7.3122482598
  C        14.8566572752        8.5631332504        7.2693149139
  C        14.8748682001        8.5630113559        4.4566500344
  C        42.9464684043       31.9615222209       13.8038289360
  C        43.6916506368       30.8854352033       13.0903525354
  C        44.6563125088       31.1913375569       12.1181042279
  C        45.2778130766       30.1717361327       11.4003971818
  C        44.9539403130       28.8214159824       11.6379462269
  C        44.0203387957       28.5237629937       12.6486213734
  C        43.3920914245       29.5405362738       13.3607965620
  C        45.5629950301       27.7240342158       10.8526933918
  C        45.5333855031       27.7174213667        9.4313959352
  C        44.8270863794       28.7076559809        8.6784318998
  C        35.1176699927       26.6390385461        8.7305656433
  C        35.1031278253       26.6106257183       11.5402390366
  C        18.1486053328        3.2469511389       13.7015186689
  C        17.4299848737        4.3438358619       12.9922810425
  C        16.4148892300        4.0525651041       12.0685867266
  C        15.7666142713        5.0832026423       11.3931657946
  C        16.1211273454        6.4284531679       11.6160399885
  C        17.1123306771        6.7118241345       12.5734874013
  C        17.7599731099        5.6829102697       13.2532838747
  C        15.4906902061        7.5241708933       10.8435736642
  C        15.4966579478        7.5075874909        9.4224366006
  C        16.1934515637        6.5059008401        8.6757429878
  H        10.6724736520       12.4659568667       11.8993415301
  H        11.6947016064       10.5511279435       10.6574555938
  H        15.3916239521       11.1685562001       12.7672606942
  H        14.3511070325       13.0713734988       14.0124600767
  H        13.3762750570       11.6312453828        9.1962119861
  H        50.3226637558       22.7486522864       11.9820666642
  H        49.3194850203       24.6230477667       10.6759647823
  H        45.6416755574       24.1606576422       12.8581651423
  H        46.6626013668       22.2898463627       14.1665007894
  H        47.6296910636       23.5758462067        9.2410488354
  H        14.8720292022        8.5882842210       12.6034550479
  H        50.2871637531       22.7028609276        4.0651875260
  H        49.2691774036       24.5757235545        5.3652423917
  H        45.6102701274       24.1087894272        3.1514783934
  H        46.6523555920       22.2535181664        1.8372409206
  H        47.6077728280       23.5518472544        6.8019177052
  H        40.6351778893       17.0707714347        3.4174949265
  H        48.6870618136       14.0950054168       15.7948922121
  H        10.6812911164       12.4667251476        4.0984578455
  H        11.6895604010       10.5247936435        5.3021880354
  H        15.3934174309       11.1588480489        3.2105784605
  H        14.3648759765       13.0873022617        1.9952899678
  H        13.3758949186       11.6221915126        6.7581933776
  H        47.9300410412       14.2187814105        1.7157470753
  H        47.7799950189       14.3739081489       14.4901874881
  H        49.0826391837       18.5519302734        2.8721122158
  H        10.4158189478       14.1343833091        0.0038411482
  H        24.4841011975        3.0279800466       11.9117631229
  H        25.6250922876        4.8855150916       10.6840268417
  H        23.2464837032        7.7544084050       12.8314011863
  H        22.1244244307        5.8870493038       14.0612793662
  H        23.8219841708        5.7866601162        9.2506251595
  H        36.3668551293       32.1904443543       11.9717491553
  H        35.2346352215       30.3692251609       10.6947528977
  H        37.5042700448       27.4400340982       12.8787646177
  H        38.6156443921       29.2739453710       14.1660274701
  H        37.0010022276       29.4633244348        9.2715551588
  H        25.7298901001        8.6135875964       12.6406626449
  H        36.4517612009       32.2479820962        4.1099587863
  H        35.3338905956       30.4335063769        5.4054366204
  H        37.5243490747       27.4911217747        3.1575891011
  H        38.6161396904       29.3172705814        1.8485610583
  H        37.0232103474       29.4842489974        6.8340893014
  H        46.1091088519       26.5874260278        3.3906242555
  H        44.6681463897       35.1160742615       15.8088305813
  H        24.4460615201        3.0372078171        4.0815538007
  H        25.5851411438        4.8743946749        5.3286442731
  H        23.1770731305        7.7670944489        3.2478010311
  H        22.0503769528        5.9179282987        1.9998898616
  H        23.8078263169        5.7863126511        6.8123405579
  H        44.9532963587       34.3898421592        1.6999044664
  H        44.9012460078       34.2066094551       14.4855071726
  H        40.6657699770       33.2088935844        2.8580681046
  H        23.1506753397        1.9575583660        0.0098107023
  H        25.7950276473       19.6810139113       11.9357919670
  H        23.6281223606       19.7202682131       10.7018919281
  H        22.3654130565       16.1982771644       12.8222713880
  H        24.5414880746       16.1695867241       14.0499823585
  H        23.7231359601       17.6820302348        9.2440693895
  H        35.1598204860       15.4333192566       12.0099923364
  H        37.2793538456       15.3892352631       10.6887222380
  H        38.6911630167       18.8190966093       12.8665066280
  H        36.5679396266       18.8428106243       14.1898679627
  H        37.2230334772       17.3690755078        9.2392849359
  H        20.3563185752       17.9744688202       12.6646162272
  H        35.1635627346       15.4279501240        4.0776955007
  H        37.3030966490       15.3561167825        5.3692989350
  H        38.7241099388       18.7752394905        3.1819123286
  H        36.5840278065       18.8257040727        1.8885438510
  H        37.2331942085       17.3545983869        6.7981400430
  H        35.1454276977       26.6898143374        3.3987731068
  H        28.5081268548       21.0849163915       15.8908273963
  H        25.7591237402       19.6288046497        4.1696294190
  H        23.5727334277       19.6876911383        5.3824406889
  H        22.2981780517       16.1860278928        3.2359110057
  H        24.4829001882       16.1524574982        2.0160979064
  H        23.7025640800       17.6658996175        6.8029828237
  H        29.0076796741       21.7239459878        1.7455100245
  H        29.1779235005       21.7343252598       14.5582263844
  H        32.0846908889       18.5751713705        2.9984116029
  H        27.4057402691       19.0793624688        0.0872345150
  H        14.8492856059       19.6487133797        4.1446769737
  H        17.0118418337       19.6956824452        5.3875653634
  H        18.3032256301       16.1880666375        3.2598117453
  H        16.1365520301       16.1568822141        2.0165390311
  H        16.9215541154       17.6983870218        6.8524120796
  H        46.0901912185       15.4336419489        4.0645146767
  H        43.9636074530       15.3660453534        5.3676125653
  H        42.5415383900       18.8008725605        3.2035269317
  H        44.6685699193       18.8433526478        1.8896564266
  H        44.0178146602       17.3107436316        6.8268708438
  H        20.2917084381       17.9249831812        3.4270015243
  H        46.0435875385       15.3873705167       12.0267275753
  H        43.9144706000       15.3244258440       10.7288139714
  H        42.5222655160       18.7925001579       12.8581261531
  H        44.6575378172       18.8412746710       14.1576959873
  H        44.0074957043       17.2996107283        9.2659722236
  H        46.1988377439       26.6824035571       12.6182086271
  H        52.7410842315       21.0626017569        0.1997665076
  H        14.8791526689       19.6761886048       11.8944891462
  H        17.0798272321       19.7503023585       10.7140583801
  H        18.3345408331       16.2295839533       12.8414962856
  H        16.1358521470       16.1794094653       14.0314264901
  H        16.9417291242       17.7140580361        9.2897867930
  H        52.3222037421       21.6732198272       14.2893034144
  H        52.0131000698       21.7019756144        1.5007463980
  H        49.0672700099       18.6078375578       13.1990315506
  H        13.2473597131       19.0164212185       15.9722325448
  H        29.9533068979       12.4684239262        4.2270195696
  H        28.8999736945       10.5239692760        5.3930737008
  H        25.2487236923       11.2098258110        3.2280486552
  H        26.3215541470       13.1413144422        2.0550304988
  H        27.1858514584       11.6665780869        6.7943624585
  H        30.9909656776       22.7910248571        3.9984681319
  H        32.0018442137       24.6708788258        5.3034125530
  H        35.6998779783       24.1369575909        3.1752561155
  H        34.6705158246       22.2645310470        1.8712421060
  H        33.6919019769       23.5766174700        6.7545969010
  H        25.7222460755        8.5944484692        3.4041214018
  H        30.9449594355       22.6845230325       11.9034141494
  H        31.9597353299       24.5614031888       10.6106750410
  H        35.5981658298       24.1330157562       12.8657085262
  H        34.5617352619       22.2641920589       14.1651928751
  H        33.6652466534       23.5576690941        9.1956739404
  H        40.5990867948       17.0870429617       12.6477017765
  H        32.5096156562       14.1518761858        0.2612477846
  H        29.8881254286       12.5336961686       11.9038092002
  H        28.8670210839       10.6196545769       10.6681484937
  H        25.1945241931       11.1912756637       12.8321662725
  H        26.2381315797       13.0909513313       14.0798729766
  H        27.1735767788       11.6821352720        9.2338108724
  H        33.2890335571       14.1781887614       14.4255604388
  H        33.4035540447       14.4143466779        1.6083185345
  H        32.1629395972       18.5405554606       13.1949480814
  H        30.2090431989       14.1877243183        0.0874974949
  H        16.1187502842        2.9633270885        4.1351810978
  H        14.9536047867        4.8203739957        5.3279668968
  H        17.3655979811        7.6860223797        3.2146119004
  H        18.5142919363        5.8184578650        2.0147493094
  H        16.7537775420        5.7397301562        6.7766332305
  H        44.8280543949       32.1402407343        3.9821309421
  H        45.9373800946       30.3413524071        5.3115234818
  H        43.6823706770       27.3781360639        3.1575624264
  H        42.5996520883       29.1899452957        1.8149862601
  H        44.2303894518       29.4367202598        6.7739500317
  H        14.8509530719        8.5461761101        3.3684341871
  H        44.8999368174       32.2340076519       11.9267092724
  H        46.0247609927       30.4129226748       10.6471915818
  H        43.7632187831       27.4840526094       12.8400815823
  H        42.6455116927       29.3177019373       14.1191521171
  H        44.2684869998       29.4704839790        9.2130031216
  H        35.0606657611       26.6208464082       12.6277409636
  H        36.6050325291       35.1341320886        0.1857329663
  H        16.1438933076        3.0129815148       11.8987523010
  H        14.9743687471        4.8563499805       10.6829933431
  H        17.3956610792        7.7473077090       12.7505653478
  H        18.5426905569        5.8933444560       13.9782230704
  H        16.7648864607        5.7556541312        9.2141713444
  H        36.2785790636       34.4823675744       14.2681930232
  H        36.3808468476       34.2092260811        1.5047223973
  H        40.5796788200       33.2021044905       13.1486093055
  H        17.4708376848        1.9472860989       15.9689587536
  H        29.0128249935       19.3327437437        4.4940932621
  H        28.9638648463       19.2123208829       11.6365900906
  H        30.6019987558       15.6638374287       11.8855287697
  H        30.9664652829       15.5239109432        4.4209834507
  H        27.9124141329       17.8369725907        6.6950071473
  H        28.8830315671       15.6490565956        6.6780728992
  H        30.3741580749       20.1504313916        9.4897702953
  H        32.0898905134       16.0609730786        9.8696546687
  H        18.8536235566        0.8691243922        4.3404711598
  H        40.5278095289       35.2291221749       11.9470000499
  H        42.3236281739       34.4185693692       11.5857060934
  H        22.0878836898        0.6919360992        4.3567732154
  H        11.5970386507       18.7126554699        4.3874051359
  H        52.2648720008       18.4312929008       11.6723243618
  H        49.2556461863       16.4770773684       11.5793486344
  H        10.1496843971       15.7982791949        4.2981343052
  H        50.8500914175       17.6923117386       11.9492093572
  H        10.0457277242       17.3945706921        4.0570852276
  H        20.2147935047        0.0022704398        4.0471483577
  H        39.1834299453       36.1243139925       11.6812560190
 Ni        30.8153817704       17.8895645102       10.8275573000
 Ni        30.7746397436       16.4974792864        7.9084502828
 Ni        29.8950580691       18.7133974191        7.6669859893
 Ni        30.0553434937       17.4534822712        5.3297003873
  O        10.6499148044       14.3651416063       13.4807469262
  O        12.6131721847       14.6575285112       14.5788019244
  O        49.1477950804       16.8459826964       15.9846797822
  O        50.3501146234       20.9360569491       13.6430946621
  O        48.3484916524       20.5932779308       14.6608981129
  O        11.0515049795       17.0539572394       14.4955630952
  O        50.3209932365       20.8816744838        2.4119436822
  O        48.3467286023       20.5867182083        1.3322100216
  O        49.5435950409       18.2484407644        2.0733504117
  O        12.3589328356       18.6245987851        0.0048644255