     571
 i =      179, E =     -4761.6635645796
  C        11.8585469591       14.0535943310       13.7364900025
  C        12.4560711500       12.8905525420       13.0182206920
  C        11.7044676401       12.1717897480       12.0763814855
  C        12.2808660266       11.1096051206       11.3839956061
  C        13.6213729294       10.7396774545       11.6118899520
  C        14.3544409361       11.4430880644       12.5855486235
  C        13.7815254118       12.5080324707       13.2770872333
  C        14.2609954995        9.6490716912       10.8384847554
  C        14.2564002871        9.6570216166        9.4167811770
  C        13.7431567432       10.7591040069        8.6628631105
  C        49.1266563230       21.2332764741       13.8747145341
  C        48.5498662107       22.4011291327       13.1475753874
  C        49.2999941196       23.0686100347       12.1667551642
  C        48.7330454508       24.1076979627       11.4335107969
  C        47.4023946159       24.5091066492       11.6619125078
  C        46.6712907417       23.8599994722       12.6751595089
  C        47.2337576257       22.8151313271       13.4045609753
  C        46.7722334665       25.5868634858       10.8646487725
  C        46.7613657473       25.5573472944        9.4428835016
  C        47.2612792930       24.4422380140        8.6994020608
  C        14.8604428078        8.5707333877        8.7035229686
  C        14.8917668950        8.5971135670       11.5151328600
  C        49.1130268402       21.2033821843        2.1504480695
  C        48.5276188876       22.3646599297        2.8776614655
  C        49.2669894220       23.0256571085        3.8702889242
  C        48.6906512338       24.0602082049        4.6017333084
  C        47.3601033979       24.4566888969        4.3637560409
  C        46.6394941337       23.8114327025        3.3406017719
  C        47.2130481775       22.7755039629        2.6088394011
  C        46.7217326943       25.5317210779        5.1547711135
  C        46.7335837820       25.5281619828        6.5764730347
  C        47.2490098238       24.4289423798        7.3328499508
  C        40.6190046111       17.0843277521        7.3193587810
  C        40.6335707924       17.1021589308        4.5095954073
  C        11.8827806566       14.0865198636        2.2905123242
  C        12.4721004491       12.9106027969        2.9946964890
  C        11.7146286458       12.1775465121        3.9209400427
  C        12.2812086475       11.0951044993        4.5894056899
  C        13.6199723925       10.7212599278        4.3574733960
  C        14.3578706264       11.4366397493        3.3964714857
  C        13.7924473150       12.5177917980        2.7237424855
  C        14.2536358026        9.6245601560        5.1279100681
  C        14.2525100773        9.6446210301        6.5497506121
  C        13.7425943321       10.7535562905        7.2968168209
  C        22.5099171949        3.2444931318       13.7464445966
  C        23.2198661528        4.3503352533       13.0429354139
  C        24.2162217931        4.0714013246       12.0958426058
  C        24.8394961236        5.1115461184       11.4112377306
  C        24.4817040537        6.4527144255       11.6533925676
  C        23.5128267073        6.7232014314       12.6369010184
  C        22.8852338539        5.6849475682       13.3201191136
  C        25.0857803445        7.5602578258       10.8780250166
  C        25.0642769136        7.5523398010        9.4562753515
  C        24.3693531710        6.5502943248        8.7070171626
  C        38.3016352387       31.9308139302       13.8449591679
  C        37.5689637562       30.8428057023       13.1370582341
  C        36.6063502854       31.1490774254       12.1630512717
  C        35.9856719720       30.1304410098       11.4457488961
  C        36.3135063309       28.7808554150       11.6806314121
  C        37.2462542873       28.4819334464       12.6914837044
  C        37.8706779916       29.4993266031       13.4080598556
  C        35.7089209325       27.6911118003       10.8829160124
  C        35.7366569453       27.7087914874        9.4616084043
  C        36.4408310412       28.7125867257        8.7246613144
  C        25.6871235895        8.6238812797        8.7386263752
  C        25.6776299215        8.6369843300       11.5508840704
  C        38.3287790785       31.9625034203        2.1616413440
  C        37.6062106677       30.8908714170        2.9045605154
  C        36.6743534122       31.2025175016        3.9064661533
  C        36.0613510740       30.1862272682        4.6364825720
  C        36.3661389393       28.8329054565        4.3883527612
  C        37.2764072435       28.5311555779        3.3569134533
  C        37.8913415198       29.5440008225        2.6279150989
  C        35.7544599281       27.7360070086        5.1726135860
  C        35.7597103212       27.7318564911        6.5946530495
  C        36.4513883850       28.7239907936        7.3581996127
  C        46.1356554996       26.6208445395        7.2866014567
  C        46.0876979735       26.5800209065        4.4787115646
  C        22.4631280295        3.2559579008        2.2613920081
  C        23.1623394624        4.3647078841        2.9801892029
  C        24.1694977362        4.0785760654        3.9156330248
  C        24.8015336948        5.1086739411        4.6083027445
  C        24.4464518751        6.4546566687        4.3885839311
  C        23.4629901792        6.7341403233        3.4208776694
  C        22.8266179710        5.7043450396        2.7283915764
  C        25.0763179828        7.5528968119        5.1642817129
  C        25.0603475894        7.5478924527        6.5870364332
  C        24.3654903636        6.5494354341        7.3403077458
  C        26.6187895786       17.8611986890       13.7780115119
  C        25.3111206804       17.9064006323       13.0533475646
  C        25.0423947655       18.9125522275       12.1118526422
  C        23.8299079065       18.9303624948       11.4248671559
  C        22.8479585526       17.9465312387       11.6593370243
  C        23.1116986586       16.9632680272       12.6315188454
  C        24.3268843082       16.9393918432       13.3148276102
  C        21.5747681839       17.9324564723       10.8946366198
  C        21.5756798847       17.9146334268        9.4722066565
  C        22.7821728321       17.7957708618        8.7125030302
  C        34.4285281807       17.2195745723       13.9144523102
  C        35.7212455319       17.1533777597       13.1708008910
  C        35.9176798818       16.1826787197       12.1762979616
  C        37.0985398834       16.1589125870       11.4388444538
  C        38.1155756079       17.1046113346       11.6754367392
  C        37.9217665616       18.0547266457       12.6964471025
  C        36.7386865159       18.0836127699       13.4313531186
  C        39.3695442747       17.1057622966       10.8868531887
  C        39.3639660515       17.1137898279        9.4645658827
  C        38.1566777438       17.2369295682        8.7071571296
  C        20.3295441224       17.9315779923        8.7628630771
  C        20.3499039295       17.9329075169       11.5764212931
  C        34.4433835157       17.2369362632        2.1917181749
  C        35.7460868724       17.1340461501        2.9116203500
  C        35.9461855409       16.1599419949        3.9009960203
  C        37.1356966378       16.1292920890        4.6250001978
  C        38.1538301553       17.0717294471        4.3802383518
  C        37.9598874507       18.0178235739        3.3561064786
  C        36.7699206857       18.0535190349        2.6352302572
  C        39.4021935318       17.0883204935        5.1753235745
  C        39.3807466077       17.1057845915        6.5970369747
  C        38.1646663781       17.2313728925        7.3403989561
  C        35.1276666023       26.6533870346        7.2985257830
  C        35.1667005773       26.6641469288        4.4893138887
  C        26.5710824269       17.8262410323        2.3303599675
  C        25.2564639266       17.8708125991        3.0380824570
  C        24.9892674929       18.8788055020        3.9766279172
  C        23.7717159069       18.9042747084        4.6507178757
  C        22.7912494045       17.9212962888        4.4091909262
  C        23.0522578737       16.9379217426        3.4379630430
  C        24.2709739405       16.9106078265        2.7624483821
  C        21.5276220340       17.9039053075        5.1820505428
  C        21.5515961006       17.8979226898        6.6035380374
  C        22.7702023467       17.7871065862        7.3462036384
  C        14.0462655324       17.8287642622        2.2938573156
  C        15.3507643951       17.8855243280        3.0194675553
  C        15.6077790314       18.8890555483        3.9665694089
  C        16.8166750558       18.9095398031        4.6596584978
  C        17.8026540328       17.9292510764        4.4277243770
  C        17.5504171594       16.9498911553        3.4485177530
  C        16.3409742184       16.9248812716        2.7570176636
  C        19.0715955098       17.9120413408        5.1969380731
  C        19.0701199616       17.9102393237        6.6194041154
  C        17.8628262933       17.8117677473        7.3802762633
  C        46.8024700960       17.2167179368        2.1633660736
  C        45.5104374584       17.1474741264        2.9061934245
  C        45.3074886146       16.1654734583        3.8885616904
  C        44.1244251894       16.1375909932        4.6224776502
  C        43.1125542230       17.0914911235        4.3972687045
  C        43.3125410551       18.0526725143        3.3875977229
  C        44.4964866722       18.0845189663        2.6543376838
  C        41.8587593095       17.0945846579        5.1867816527
  C        41.8653571946       17.0964109162        6.6091937633
  C        43.0745123641       17.1936583113        7.3672479584
  C        20.3167300347       17.9223698033        7.3280549634
  C        20.2959080894       17.8912848841        4.5150392297
  C        46.7834380591       17.2310967501       13.8824686942
  C        45.4803446463       17.1231704945       13.1658069998
  C        45.2630742943       16.1228669537       12.2057192075
  C        44.0747651897       16.0917666926       11.4796805176
  C        43.0725348918       17.0578903037       11.6954072884
  C        43.2806094834       18.0283322307       12.6936719523
  C        44.4699981297       18.0657706825       13.4150773017
  C        41.8250444287       17.0755197553       10.8987290713
  C        41.8482054153       17.0851320752        9.4772238998
  C        43.0664725651       17.1852941782        8.7340338530
  C        46.1534352085       26.6372821168        8.7211479757
  C        46.1622680530       26.6559553310       11.5307971266
  C        14.0447393519       17.8311702413       13.7036138432
  C        15.3654579896       17.9043113228       13.0124134811
  C        15.6399476821       18.9208143863       12.0854665158
  C        16.8689240450       18.9573830444       11.4306291907
  C        17.8505282120       17.9765107292       11.6771468081
  C        17.5827896522       16.9885955566       12.6420628850
  C        16.3558648677       16.9515907382       13.3004273508
  C        19.1178705121       17.9517856471       10.9086759646
  C        19.0942416834       17.9295973061        9.4872522345
  C        17.8745966889       17.8203188133        8.7462443653
  C        28.7948228557       14.1189462804        2.4042569324
  C        28.1935268776       12.9404605821        3.0934856102
  C        28.9133698362       12.2131911456        4.0526628179
  C        28.3200662670       11.1303234249        4.6976119173
  C        26.9923454721       10.7528684878        4.4103361432
  C        26.2953213542       11.4618132365        3.4154512749
  C        26.8868413128       12.5425481920        2.7669894350
  C        26.3242499186        9.6690007241        5.1671157042
  C        26.3002275473        9.6974533982        6.5879857035
  C        26.7925435059       10.8139384341        7.3357206758
  C        32.1793343657       21.2425450766        2.1511890505
  C        32.7717726335       22.4112276234        2.8686291408
  C        32.0159674016       23.1005463351        3.8294852661
  C        32.5839853154       24.1402038905        4.5593221809
  C        33.9237698811       24.5192425009        4.3478780744
  C        34.6622276305       23.8496023588        3.3545071331
  C        34.0963243999       22.8039325692        2.6272245210
  C        34.5493298682       25.5960997752        5.1489265741
  C        34.5365078198       25.5693790729        6.5704357647
  C        34.0252440669       24.4550342348        7.3082893141
  C        25.6898808811        8.6180882405        7.3040745121
  C        25.6949401733        8.6151096768        4.4909910001
  C        32.1025580952       21.2283910239       13.8797909676
  C        32.6900200140       22.3841086416       13.1388440342
  C        31.9493636790       23.0495616196       12.1498681132
  C        32.5269284039       24.0795423851       11.4111419030
  C        33.8587294140       24.4743826155       11.6444879007
  C        34.5821042814       23.8232610466       12.6618894284
  C        34.0092593040       22.7873410790       13.3952680259
  C        34.4959301385       25.5565897206       10.8591242821
  C        34.5083754684       25.5495637066        9.4371845666
  C        34.0109092495       24.4457908446        8.6750256415
  C        40.6099979393       17.0834263250        8.7544564010
  C        40.5943818594       17.1027064158       11.5646971372
  C        28.7157021990       14.0938559489       13.7819716792
  C        28.1055005936       12.9437384726       13.0505824851
  C        28.8435469984       12.2357189252       12.0897733316
  C        28.2633593199       11.1738051019       11.4003257706
  C        26.9287478822       10.7935566078       11.6462992875
  C        26.2083687375       11.4870932807       12.6366774783
  C        26.7875252660       12.5489910696       13.3288134334
  C        26.2888533471        9.7008464263       10.8752904579
  C        26.2838626991        9.7135412003        9.4536638375
  C        26.7832480983       10.8226404773        8.7012623131
  C        18.1353850930        3.1809923010        2.3222672343
  C        17.4060455760        4.2782463317        3.0208462153
  C        16.3905735189        3.9998657798        3.9486240761
  C        15.7428299422        5.0398311276        4.6121262674
  C        16.0944861266        6.3835752618        4.3721933049
  C        17.0835551931        6.6531164715        3.4081118492
  C        17.7326660979        5.6157827934        2.7430677435
  C        15.4701911942        7.4912857694        5.1352293333
  C        15.4856359798        7.4906939167        6.5569397401
  C        16.1873512455        6.4971923892        7.3101154701
  C        42.9458761022       31.8594568783        2.0780454755
  C        43.6462045466       30.7718235525        2.8219686619
  C        44.5917879670       31.0931307936        3.8080071117
  C        45.1974883128       30.0875678611        4.5556344371
  C        44.8710220699       28.7345015673        4.3407895313
  C        43.9451404243       28.4201754449        3.3276191574
  C        43.3363366493       29.4253338401        2.5795952971
  C        45.4886210937       27.6552216358        5.1439850254
  C        45.4929294733       27.6809528399        6.5656761170
  C        44.8058859422       28.6890235919        7.3123062551
  C        14.8566452262        8.5631784071        7.2692972817
  C        14.8747829424        8.5629814566        4.4566338329
  C        42.9464448859       31.9614828158       13.8038366367
  C        43.6916556318       30.8853998012       13.0904012316
  C        44.6562679721       31.1913172854       12.1181052837
  C        45.2777974275       30.1717298953       11.4004075644
  C        44.9540187577       28.8213947899       11.6380192124
  C        44.0205162752       28.5237236950       12.6487872754
  C        43.3922478488       29.5404886133       13.3609583229
  C        45.5630597694       27.7240147059       10.8527575663
  C        45.5334750501       27.7174321480        9.4314551819
  C        44.8271773337       28.7076702828        8.6784907308
  C        35.1147751816       26.6423341780        8.7332935748
  C        35.1074607700       26.6139181834       11.5430317655
  C        18.1485874956        3.2470219122       13.7015390698
  C        17.4300315506        4.3439057524       12.9922429863
  C        16.4149735898        4.0526605229       12.0685047270
  C        15.7666986237        5.0833048030       11.3930980886
  C        16.1212199582        6.4285477284       11.6159935366
  C        17.1124367880        6.7119031271       12.5734278521
  C        17.7600743982        5.6829736418       13.2532037360
  C        15.4907354005        7.5242532677       10.8435518715
  C        15.4967318381        7.5076739668        9.4224169308
  C        16.1936172970        6.5060527640        8.6757204868
  H        10.6723768683       12.4660178967       11.8992693053
  H        11.6945971442       10.5512105940       10.6573714558
  H        15.3914054844       11.1683432449       12.7674362210
  H        14.3508709503       13.0711353155       14.0127079005
  H        13.3760140253       11.6311722949        9.1961769199
  H        50.3227561194       22.7486746005       11.9821539739
  H        49.3195616639       24.6230741812       10.6760345226
  H        45.6416478103       24.1604484110       12.8580222497
  H        46.6625498447       22.2896315857       14.1663344204
  H        47.6296510621       23.5757871210        9.2410834042
  H        14.8719645241        8.5882898695       12.6034370028
  H        50.2871385159       22.7030162255        4.0649797642
  H        49.2691057905       24.5758751013        5.3650440771
  H        45.6099247617       24.1083078608        3.1518577046
  H        46.6520026180       22.2530272325        1.8376481455
  H        47.6076283648       23.5517593817        6.8019463304
  H        40.6386598904       17.0665963452        3.4218296808
  H        48.6869224070       14.0949965278       15.7948492945
  H        10.6811923324       12.4667162656        4.0984103408
  H        11.6894249466       10.5248003807        5.3021840810
  H        15.3932511106       11.1586316439        3.2104317543
  H        14.3646941540       13.0870613717        1.9950597701
  H        13.3756077904       11.6220901006        6.7581590521
  H        47.9300000288       14.2184589653        1.7157707848
  H        47.7799036311       14.3735168858       14.4899688473
  H        49.0823664281       18.5518739467        2.8720501260
  H        10.4155389748       14.1344194070        0.0037642493
  H        24.4802518336        3.0332279135       11.9069693464
  H        25.6130460667        4.8950485981       10.6776397474
  H        23.2290355912        7.7556576544       12.8300305528
  H        22.1153614879        5.8842163362       14.0615423769
  H        23.8079796482        5.7918348395        9.2448532723
  H        36.3697740914       32.1928084790       11.9703618341
  H        35.2387902870       30.3708403284       10.6923321138
  H        37.5063688309       27.4423087516       12.8795172805
  H        38.6165327588       29.2770035648       14.1674934423
  H        37.0052436404       29.4627091074        9.2708833889
  H        25.7091191023        8.6198314599       12.6388158335
  H        36.4511682357       32.2473392136        4.1102079962
  H        35.3330015073       30.4333381857        5.4056767771
  H        37.5238602507       27.4903152586        3.1590152915
  H        38.6162344963       29.3160439365        1.8502663462
  H        37.0250324440       29.4823719025        6.8332327740
  H        46.1089007194       26.5872628704        3.3906707838
  H        44.6681977850       35.1161145735       15.8088498815
  H        24.4473890931        3.0402262995        4.0819307338
  H        25.5852980013        4.8793415184        5.3271565218
  H        23.1771794371        7.7686885364        3.2419180826
  H        22.0513987357        5.9176908253        1.9960365682
  H        23.8007107501        5.7907487979        6.8063155732
  H        44.9535204573       34.3900522928        1.7000536918
  H        44.9014723139       34.2067200917       14.4854619226
  H        40.6659316060       33.2089341891        2.8581536690
  H        23.1505559019        1.9577612654        0.0096592425
  H        25.7934918089       19.6791400601       11.9353369169
  H        23.6271193765       19.7166735092       10.7008048389
  H        22.3651439793       16.1948402097       12.8218864690
  H        24.5413231555       16.1668375273       14.0496538792
  H        23.7229474142       17.6802451787        9.2430037177
  H        35.1269912439       15.4592072009       11.9912855903
  H        37.2490859534       15.3987261748       10.6754422458
  H        38.6981449103       18.7935824692       12.8840884952
  H        36.5731937741       18.8323706227       14.2026206498
  H        37.2179514052       17.3691763934        9.2376454152
  H        20.3560550793       17.9702897349       12.6643787537
  H        35.1504813862       15.4462388773        4.1020365274
  H        37.2882636755       15.3712477759        5.3900929393
  H        38.7386954361       18.7520583302        3.1607256140
  H        36.5997436049       18.8034534827        1.8665173292
  H        37.2317961739       17.3583118536        6.7985259863
  H        35.1435187956       26.6874702599        3.4014562547
  H        28.5025492502       21.0848074442       15.8896587154
  H        25.7484300104       19.6361011695        4.1576388137
  H        23.5634855094       19.6905743066        5.3731119184
  H        22.3031848497       16.1725086337        3.2455330561
  H        24.4886906105       16.1402567562        2.0264508298
  H        23.7019748282       17.6646736837        6.8020978347
  H        29.0087373363       21.7229969021        1.7464080945
  H        29.1921479670       21.7197667667       14.5628470971
  H        32.0943548499       18.5590801111        3.0003295532
  H        27.4060403333       19.0805026520        0.0901613053
  H        14.8496334428       19.6485219085        4.1442672118
  H        17.0121949716       19.6940040127        5.3876181329
  H        18.3011768254       16.1850594027        3.2604853047
  H        16.1345593181       16.1555106740        2.0167851732
  H        16.9205095898       17.6962363843        6.8526544725
  H        46.0942774566       15.4371856997        4.0705652545
  H        43.9695403451       15.3681486510        5.3756687617
  H        42.5400629363       18.7975819794        3.2079991101
  H        44.6652497382       18.8415345383        1.8919650533
  H        44.0159170642       17.3068930049        6.8372646472
  H        20.2901729749       17.9192409321        3.4268569392
  H        46.0411498446       15.3835175640       12.0299092827
  H        43.9103361737       15.3148038146       10.7362398985
  H        42.5127648536       18.7792705232       12.8677685656
  H        44.6500270617       18.8342710361       14.1628383941
  H        44.0018276599       17.2909671208        9.2759641321
  H        46.1989056723       26.6823501016       12.6182527562
  H        52.7410011806       21.0625485619        0.1997352199
  H        14.8803565397       19.6758176267       11.8950132738
  H        17.0813109613       19.7485494004       10.7147652985
  H        18.3321880955       16.2248737419       12.8396283591
  H        16.1333263673       16.1762637928       14.0294866968
  H        16.9411033673       17.7113636324        9.2901265371
  H        52.3219472429       21.6731035779       14.2893642477
  H        52.0128782224       21.7018273936        1.5007044047
  H        49.0664938054       18.6074493801       13.1992272836
  H        13.2471761563       19.0165067730       15.9721453000
  H        29.9348986531       12.5104638331        4.2791060014
  H        28.8807308484       10.5641590942        5.4382467265
  H        25.2695637116       11.1809797169        3.1855059018
  H        26.3464378492       13.1098365176        2.0132135060
  H        27.1535689510       11.6843650011        6.7964396587
  H        30.9856075990       22.7950280894        3.9950534095
  H        31.9941339569       24.6755500784        5.3002433566
  H        35.6990468197       24.1335098942        3.1860739434
  H        34.6717841256       22.2606635709        1.8811444125
  H        33.6717934247       23.5857145555        6.7610282594
  H        25.7316089653        8.5944607700        3.4031896457
  H        30.9230738477       22.7387911156       11.9679790415
  H        31.9465765408       24.5970119205       10.6503346821
  H        35.6131694304       24.1173690591       12.8470351009
  H        34.5729394336       22.2610534193       14.1621242198
  H        33.6459933422       23.5693096883        9.2032006626
  H        40.5884358460       17.0690010938       12.6525283702
  H        32.5120272020       14.1544342401        0.2685345293
  H        29.8754657290       12.5257510787       11.9051969155
  H        28.8431379238       10.6202415185       10.6648700194
  H        25.1760994706       11.2051962630       12.8339997784
  H        26.2289891829       13.0997720476       14.0820418505
  H        27.1357088630       11.6998174646        9.2358725225
  H        33.2882187387       14.1780617768       14.4207049625
  H        33.4031666156       14.4074920870        1.6156081208
  H        32.1722426346       18.5505464026       13.2017875097
  H        30.2113237489       14.1881985086        0.0889058256
  H        16.1187246343        2.9633406040        4.1352204521
  H        14.9535589424        4.8204277326        5.3279764607
  H        17.3657211677        7.6860166613        3.2147492860
  H        18.5144607204        5.8184325925        2.0149594695
  H        16.7539666526        5.7398946522        6.7766178691
  H        44.8281155624       32.1402005163        3.9821873594
  H        45.9373957193       30.3412822137        5.3115486373
  H        43.6823746196       27.3781195838        3.1575220209
  H        42.5997168187       29.1899503138        1.8149484945
  H        44.2304576342       29.4367418411        6.7740142503
  H        14.8508417955        8.5461175369        3.3684189265
  H        44.8998215262       32.2339937549       11.9266565056
  H        46.0247093265       30.4129465360       10.6471746936
  H        43.7635160603       27.4839977681       12.8403327698
  H        42.6457641935       29.3176159844       14.1193958847
  H        44.2686009719       29.4705170874        9.2130578414
  H        35.0685499190       26.6238231467       12.6306469702
  H        36.6051120984       35.1341825602        0.1856039910
  H        16.1439767844        3.0130792003       11.8986677099
  H        14.9744664041        4.8564768090       10.6829038751
  H        17.3957920858        7.7473810009       12.7504935089
  H        18.5427935191        5.8933892044       13.9781467136
  H        16.7651139540        5.7558637318        9.2141648665
  H        36.2787961356       34.4824239181       14.2682473377
  H        36.3810428240       34.2091015923        1.5045889914
  H        40.5801816000       33.2024496980       13.1486645513
  H        17.4707620187        1.9474414433       15.9690808063
  H        28.8664352044       19.2386415248        4.4335755131
  H        28.8774238802       18.9857481867       11.7019361451
  H        30.5769347488       15.5704881989       11.9228458213
  H        31.0980526296       15.6183490288        4.5075010898
  H        27.9107884801       17.5813397583        6.6736639978
  H        28.9829894311       15.5059747912        6.4873884925
  H        30.2440742874       20.0012253419        9.8032487938
  H        32.1341860852       15.9475169681        9.7633101365
  H        18.8533496578        0.8690479954        4.3403244368
  H        40.5278866979       35.2290261198       11.9469706849
  H        42.3240589212       34.4188250363       11.5855580815
  H        22.0878155247        0.6918849738        4.3568260488
  H        11.5970280800       18.7128028042        4.3872872593
  H        52.2648237762       18.4309688457       11.6725043889
  H        49.2552356515       16.4770730645       11.5794046027
  H        10.1501456316       15.7982385083        4.2979573912
  H        50.8498520895       17.6924163278       11.9492270484
  H        10.0459140634       17.3945478754        4.0571253734
  H        20.2144386356        0.0021658066        4.0471470124
  H        39.1836439711       36.1243427406       11.6811402174
 Ni        30.8154445852       17.7443044818       10.8289106171
 Ni        30.7353067556       16.4733637512        7.8268496801
 Ni        29.6822961331       18.6439080277        7.9092589510
 Ni        30.0967628500       17.5248607663        5.4094653568
  O        10.6498587543       14.3651507405       13.4806899119
  O        12.6131341815       14.6575268697       14.5787871220
  O        49.1476657099       16.8459931649       15.9846337477
  O        50.3501806094       20.9359766317       13.6430858395
  O        48.3485108993       20.5932441817       14.6608697191
  O        11.0512990191       17.0540015768       14.4955123946
  O        50.3209330095       20.8816725520        2.4119156771
  O        48.3466915838       20.5867011735        1.3321876689
  O        49.5435195398       18.2484463831        2.0733672590
  O        12.3588128829       18.6245737784        0.0048511191