     586
 i =      265, E =     -4847.8653246312
  C        11.8586958810       14.0535962295       13.7364496699
  C        12.4562453879       12.8906101874       13.0180867679
  C        11.7043166252       12.1713319528       12.0769043635
  C        12.2806342561       11.1090632138       11.3845779634
  C        13.6213719987       10.7396673296       11.6119110768
  C        14.3548509342       11.4436482509       12.5848274996
  C        13.7819889386       12.5086795416       13.2762928594
  C        14.2608604081        9.6489324452       10.8385507380
  C        14.2561379747        9.6567634693        9.4168474134
  C        13.7427741534       10.7588102001        8.6629679709
  C        49.1267779100       21.2331525500       13.8746624194
  C        48.5499008632       22.4011258534       13.1474253613
  C        49.3000178332       23.0687053019       12.1667138287
  C        48.7330760744       24.1078638841       11.4335220865
  C        47.4024257588       24.5091491711       11.6619586064
  C        46.6712855332       23.8599410734       12.6750833214
  C        47.2337839857       22.8150073391       13.4043818491
  C        46.7721959388       25.5868972564       10.8647226254
  C        46.7609585198       25.5572461823        9.4429675637
  C        47.2607342639       24.4420521945        8.6995209370
  C        14.8601840218        8.5704912299        8.7035754195
  C        14.8917406937        8.5970528205       11.5151904853
  C        49.1131949379       21.2033207061        2.1504595897
  C        48.5276395226       22.3646093180        2.8779139640
  C        49.2669755088       23.0256271470        3.8705026179
  C        48.6905856414       24.0601480922        4.6020012371
  C        47.3600443918       24.4565427200        4.3639958157
  C        46.6394272927       23.8112189557        3.3409168310
  C        47.2130454443       22.7753154585        2.6091518413
  C        46.7216377912       25.5316427543        5.1549100545
  C        46.7331714980       25.5280275167        6.5766093526
  C        47.2484213247       24.4287120452        7.3329712458
  C        40.6326631961       17.1480227784        7.3271783327
  C        40.6511575852       17.1647440547        4.5182491250
  C        11.8829992786       14.0866444470        2.2906061646
  C        12.4724308982       12.9108432820        2.9949526729
  C        11.7146735017       12.1772579884        3.9205367519
  C        12.2812458346       11.0947808684        4.5889660947
  C        13.6202552599       10.7215081862        4.3576078264
  C        14.3585518043       11.4375269705        3.3974069539
  C        13.7931113163       12.5187018678        2.7247048233
  C        14.2538203180        9.6246905917        5.1279958043
  C        14.2524300401        9.6445066730        6.5498422551
  C        13.7423000005       10.7533273879        7.2969230289
  C        22.5126556631        3.2445016713       13.7482564753
  C        23.2289219233        4.3490642159       13.0496721011
  C        24.2267970507        4.0676680599       12.1047558658
  C        24.8554973077        5.1062292527       11.4228874994
  C        24.5021817627        6.4484845747       11.6657341293
  C        23.5327854303        6.7214850613       12.6480092808
  C        22.8993916852        5.6846879527       13.3283298084
  C        25.1093631232        7.5535397319       10.8891720706
  C        25.0814368249        7.5449292888        9.4677348912
  C        24.3768277612        6.5463387875        8.7229149322
  C        38.3054678410       31.9283638120       13.8420621380
  C        37.5830094785       30.8356142704       13.1284344440
  C        36.6228705651       31.1342343450       12.1498480125
  C        36.0129891489       30.1104981111       11.4297732922
  C        36.3485808871       28.7630215124       11.6668508495
  C        37.2801830900       28.4716546554       12.6809379865
  C        37.8939192612       29.4941447269       13.3997640503
  C        35.7502563521       27.6688285274       10.8694591068
  C        35.7742365035       27.6876167276        9.4479323017
  C        36.4759383092       28.6923521197        8.7098179172
  C        25.7058824564        8.6130606835        8.7464141268
  C        25.7074370289        8.6288381074       11.5585379229
  C        38.3286563796       31.9631594818        2.1593575176
  C        37.6055928813       30.8890514180        2.8983703173
  C        36.6769024150       31.1966755043        3.9040374980
  C        36.0670632874       30.1768660281        4.6317000343
  C        36.3724818475       28.8252832732        4.3761889149
  C        37.2780863140       28.5274674586        3.3399149391
  C        37.8899990459       29.5438329080        2.6136550043
  C        35.7671375071       27.7251606381        5.1599586420
  C        35.7832287882       27.7161096990        6.5815459493
  C        36.4802302016       28.7058482212        7.3433918269
  C        46.1353774271       26.6208110582        7.2866996317
  C        46.0878969832       26.5800723166        4.4787963751
  C        22.4604917083        3.2554610004        2.2627931909
  C        23.1537935711        4.3634120285        2.9863404104
  C        24.1560277555        4.0763344155        3.9266729595
  C        24.7837833119        5.1058263775        4.6234448563
  C        24.4292613213        6.4516888973        4.4022417949
  C        23.4500368518        6.7320600567        3.4304897268
  C        22.8176009685        5.7028109449        2.7341800036
  C        25.0611644820        7.5488782034        5.1761007641
  C        25.0574055176        7.5418317924        6.5987743740
  C        24.3637579443        6.5458292667        7.3563311801
  C        26.6169353540       17.8542927684       13.7795609792
  C        25.3097287208       17.9059672610       13.0576871699
  C        25.0611385344       18.8941994852       12.0922950725
  C        23.8487921836       18.9180801661       11.4058842376
  C        22.8499633101       17.9563665763       11.6608809105
  C        23.0958690532       16.9907326060       12.6553459386
  C        24.3096233740       16.9618365598       13.3402682277
  C        21.5778419393       17.9434335095       10.8951311366
  C        21.5780806976       17.9183791824        9.4724538737
  C        22.7834201501       17.7861917231        8.7125058263
  C        34.4385381045       17.1987259942       13.9104366933
  C        35.7287110399       17.1519846272       13.1646250582
  C        35.9275856105       16.1991856548       12.1536346392
  C        37.1090003303       16.1903690511       11.4180414061
  C        38.1236387375       17.1324203408       11.6751486763
  C        37.9277037583       18.0653142452       12.7115215618
  C        36.7431013269       18.0804596680       13.4432448829
  C        39.3781725014       17.1456054288       10.8905587014
  C        39.3744656301       17.1667033738        9.4690048196
  C        38.1679234469       17.2918254399        8.7111501203
  C        20.3313680437       17.9388039619        8.7637695524
  C        20.3525014226       17.9488962998       11.5767782657
  C        34.4740717100       17.2448517868        2.1854984089
  C        35.7754930148       17.1678904810        2.9096630835
  C        35.9799597914       16.1966462457        3.9018098304
  C        37.1647099690       16.1805154580        4.6326969232
  C        38.1734909122       17.1326112734        4.3877861463
  C        37.9752460638       18.0767601631        3.3629874508
  C        36.7878136324       18.1000963411        2.6372162505
  C        39.4200611021       17.1549102743        5.1828580172
  C        39.3959125976       17.1715298103        6.6037216821
  C        38.1783191192       17.2918310000        7.3447280538
  C        35.1554716788       26.6357535070        7.2854784184
  C        35.1751918824       26.6558180375        4.4768886392
  C        26.5686087664       17.8203586588        2.3327029526
  C        25.2541615758       17.8708396927        3.0368730584
  C        24.9924930467       18.8738494443        3.9823078043
  C        23.7751245363       18.9001474465        4.6562888452
  C        22.7901330104       17.9231853227        4.4086282342
  C        23.0457720167       16.9457894341        3.4298488696
  C        24.2639513318       16.9173804744        2.7540522084
  C        21.5274086665       17.9056583203        5.1824437128
  C        21.5522937843       17.8973758325        6.6040166353
  C        22.7704588333       17.7761885673        7.3460568369
  C        14.0466107958       17.8290104407        2.2939727446
  C        15.3508264841       17.8867566180        3.0195322021
  C        15.6066675495       18.8904942585        3.9668394199
  C        16.8152969538       18.9122353663        4.6602615716
  C        17.8024922057       17.9329976735        4.4288023409
  C        17.5513556570       16.9534659008        3.4493563855
  C        16.3422244171       16.9272237416        2.7573451232
  C        19.0714144125       17.9166997592        5.1980784022
  C        19.0706840220       17.9165045243        6.6206394629
  C        17.8636532667       17.8208967421        7.3821312320
  C        46.8058233096       17.2196086820        2.1647326232
  C        45.5174997147       17.1615818443        2.9121191560
  C        45.3131139541       16.1903123284        3.9043146171
  C        44.1326609265       16.1777078155        4.6423500123
  C        43.1271665921       17.1362171136        4.4093924629
  C        43.3288589868       18.0867132325        3.3904935866
  C        44.5100360194       18.1036271031        2.6538276140
  C        41.8746095428       17.1527084601        5.1977953938
  C        41.8798599047       17.1578994895        6.6195151599
  C        43.0883563677       17.2532946488        7.3787858346
  C        20.3176903204       17.9267992812        7.3288903388
  C        20.2954081713       17.8951367948        4.5158326486
  C        46.7857776660       17.2311541001       13.8847381258
  C        45.4822526686       17.1273403830       13.1711839978
  C        45.2634751686       16.1352064970       12.2035734602
  C        44.0751631961       16.1138420964       11.4778871442
  C        43.0768173001       17.0813781074       11.7032518761
  C        43.2852312955       18.0416075673       12.7107604501
  C        44.4747088185       18.0698082485       13.4311212523
  C        41.8317971182       17.1116318293       10.9057333646
  C        41.8581674687       17.1353019322        9.4851391396
  C        43.0780647019       17.2399378503        8.7453179430
  C        46.1531586533       26.6372625979        8.7212446394
  C        46.1624668245       26.6561059890       11.5308650189
  C        14.0458761376       17.8326846520       13.7041461994
  C        15.3672461013       17.9097311733       13.0146319759
  C        15.6391787179       18.9266525178       12.0871925757
  C        16.8681743443       18.9667382729       11.4325081650
  C        17.8529712618       17.9890235809       11.6792264364
  C        17.5879557626       17.0012559455       12.6452714271
  C        16.3609625688       16.9606210064       13.3034954236
  C        19.1201571400       17.9658444164       10.9099423486
  C        19.0960795060       17.9410758681        9.4884796650
  C        17.8761240875       17.8321582352        8.7480814023
  C        28.8065709484       14.0865802429        2.3942467710
  C        28.1934429056       12.9126154540        3.0803439429
  C        28.9232155064       12.1598216357        4.0122794990
  C        28.3239474010       11.0856494785        4.6651088220
  C        26.9818266639       10.7401940225        4.4085075000
  C        26.2736215273       11.4723626753        3.4389843126
  C        26.8704217042       12.5473682467        2.7851574015
  C        26.3147305820        9.6601837932        5.1710611507
  C        26.3086070734        9.6846866708        6.5919933563
  C        26.8193333633       10.7952813383        7.3364566689
  C        32.1795209549       21.2361608296        2.1456287420
  C        32.7748848902       22.4044215389        2.8617851557
  C        32.0279929753       23.0833340130        3.8362467619
  C        32.5990830762       24.1229105404        4.5632654666
  C        33.9336701275       24.5102901950        4.3368071210
  C        34.6639457404       23.8496993946        3.3311898834
  C        34.0944292030       22.8050708872        2.6055514569
  C        34.5632885000       25.5849119351        5.1367173746
  C        34.5594426509       25.5540394913        6.5580112739
  C        34.0502116552       24.4384812027        7.2958054167
  C        25.6982348732        8.6079932920        7.3119590777
  C        25.6745194644        8.6113526481        4.4987395310
  C        32.1155752600       21.2229095064       13.8720891401
  C        32.7164041981       22.3604903226       13.1132421507
  C        31.9698561190       23.0620991641       12.1535932061
  C        32.5560898498       24.0878545761       11.4155437185
  C        33.9024083186       24.4465750511       11.6240709711
  C        34.6341757844       23.7580164437       12.6093980912
  C        34.0527300880       22.7239117459       13.3391373245
  C        34.5413973510       25.5323279937       10.8447938325
  C        34.5465627776       25.5289837323        9.4238562881
  C        34.0425265576       24.4278676844        8.6624213712
  C        40.6213104627       17.1409900373        8.7611532751
  C        40.6010914414       17.1346141900       11.5706320431
  C        28.7419897754       14.0671479494       13.8161222195
  C        28.1317559912       12.9219292460       13.0751657218
  C        28.8787673085       12.2100751983       12.1237546076
  C        28.3001320191       11.1545662472       11.4221069502
  C        26.9595706613       10.7831572731       11.6504558757
  C        26.2296503635       11.4827134770       12.6290029509
  C        26.8062016983       12.5400502099       13.3305021313
  C        26.3205899475        9.6894696567       10.8793377364
  C        26.3126438881        9.6997190456        9.4579211650
  C        26.8186782972       10.8037807757        8.7022762834
  C        18.1354293330        3.1812848157        2.3222895625
  C        17.4062161661        4.2783854386        3.0208586915
  C        16.3907725184        4.0000315166        3.9487212790
  C        15.7430595680        5.0400123734        4.6121689816
  C        16.0947185433        6.3837829066        4.3722300385
  C        17.0837498580        6.6532820648        3.4080803453
  C        17.7328519585        5.6159474047        2.7430553892
  C        15.4703968600        7.4914353826        5.1352785139
  C        15.4856226611        7.4906235355        6.5569841369
  C        16.1873065959        6.4971080750        7.3101657954
  C        42.9460485011       31.8595546801        2.0780732416
  C        43.6464786819       30.7719493816        2.8218826739
  C        44.5917160581       31.0932885565        3.8082523226
  C        45.1974184257       30.0877446741        4.5559070262
  C        44.8713800561       28.7346122848        4.3407813795
  C        43.9460357817       28.4202746479        3.3271007076
  C        43.3372399864       29.4253923379        2.5790383586
  C        45.4888324989       27.6553148893        5.1440332369
  C        45.4928544054       27.6810011628        6.5657198197
  C        44.8060016641       28.6892029562        7.3123452572
  C        14.8564795563        8.5629975483        7.2693575695
  C        14.8751625810        8.5632528512        4.4567027869
  C        42.9466866551       31.9616911492       13.8038542083
  C        43.6920577491       30.8856605037       13.0906024047
  C        44.6560562954       31.1915947470       12.1176996931
  C        45.2775813255       30.1720016812       11.4000162081
  C        44.9544028678       28.8216067855       11.6381500703
  C        44.0217229120       28.5239580327       12.6497148153
  C        43.3934740647       29.5407016041       13.3619023027
  C        45.5632404813       27.7241878482       10.8528459595
  C        45.5334358578       27.7175514634        9.4315475506
  C        44.8272586537       28.7078400741        8.6785303975
  C        35.1501862141       26.6222768416        8.7198657935
  C        35.1543902524       26.5878273075       11.5297962654
  C        18.1485635763        3.2471312853       13.7013909045
  C        17.4300028376        4.3438243076       12.9921932008
  C        16.4149945068        4.0525617631       12.0683611528
  C        15.7666694319        5.0832065677       11.3930628623
  C        16.1211145767        6.4284846522       11.6160250877
  C        17.1122403945        6.7118405721       12.5735629540
  C        17.7599508506        5.6829253140       13.2532623946
  C        15.4905966287        7.5241382055       10.8435873886
  C        15.4964821809        7.5074461620        9.4224638884
  C        16.1934857044        6.5059111478        8.6757686919
  H        10.6720415833       12.4651982261       11.9002686366
  H        11.6941567243       10.5502964479       10.6584073214
  H        15.3920758551       11.1694622355       12.7660789580
  H        14.3516392647       13.0723094574       14.0112764446
  H        13.3755370330       11.6308253224        9.1963075565
  H        50.3228217666       22.7488221971       11.9822199413
  H        49.3196137929       24.6233172262       10.6761132056
  H        45.6416325776       24.1603497938       12.8579286312
  H        46.6626933216       22.2893445777       14.1661333130
  H        47.6291049381       23.5756487838        9.2412880648
  H        14.8721508008        8.5884329492       12.6034998317
  H        50.2871459522       22.7029900742        4.0651256336
  H        49.2690498929       24.5758618346        5.3652759756
  H        45.6098538281       24.1080774353        3.1521877365
  H        46.6521255598       22.2526794941        1.8379729865
  H        47.6070447831       23.5515352203        6.8020539880
  H        40.6575487378       17.1256384106        3.4306604292
  H        48.6868648883       14.0948744015       15.7948601346
  H        10.6810236690       12.4659924362        4.0974775811
  H        11.6892691032       10.5240359611        5.3012315361
  H        15.3941941647       11.1600823385        3.2119840814
  H        14.3656065514       13.0884765960        1.9966091740
  H        13.3752963754       11.6218468312        6.7582471930
  H        47.9301647688       14.2179543151        1.7160282386
  H        47.7799640149       14.3728388230       14.4897398642
  H        49.0837044194       18.5521151985        2.8725634043
  H        10.4157839177       14.1342758511        0.0037736592
  H        24.4872116074        3.0287855095       11.9148603422
  H        25.6292963634        4.8877717710       10.6901260094
  H        23.2527632838        7.7548101496       12.8420315944
  H        22.1286740993        5.8862401819       14.0682737659
  H        23.8151681362        5.7906335958        9.2642444172
  H        36.3790720038       32.1761265501       11.9558201879
  H        35.2675248121       30.3457072627       10.6733099913
  H        37.5478533505       27.4342562066       12.8707466693
  H        38.6386360780       29.2774687008       14.1619353660
  H        37.0431073046       29.4410813070        9.2551521531
  H        25.7412195903        8.6143509467       12.6464299423
  H        36.4546582816       32.2406894862        4.1129753183
  H        35.3417676413       30.4198100784        5.4050963401
  H        37.5250701423       27.4875342764        3.1368012156
  H        38.6125708231       29.3203864887        1.8325964333
  H        37.0516980387       29.4646724503        6.8166687129
  H        46.1094753389       26.5873986771        3.3907651842
  H        44.6685295786       35.1163052015       15.8087731763
  H        24.4339061126        3.0379798816        4.0926769700
  H        25.5649474786        4.8767365615        5.3451488932
  H        23.1651914307        7.7667721158        3.2509677470
  H        22.0457991888        5.9161037138        1.9982448585
  H        23.7913008742        5.7903517719        6.8259765498
  H        44.9545847649       34.3908739651        1.7004480975
  H        44.9025418599       34.2071141828       14.4854076990
  H        40.6667629317       33.2096029913        2.8583811164
  H        23.1504946206        1.9580703084        0.0104260533
  H        25.8312316031       19.6361385180       11.8932836164
  H        23.6603479883       19.6906178878       10.6634852833
  H        22.3369574495       16.2385497152       12.8608834425
  H        24.5108894166       16.2016444350       14.0914730256
  H        23.7235148141       17.6584177480        9.2420235427
  H        35.1419933365       15.4759361598       11.9493793514
  H        37.2596956164       15.4444136800       10.6408197693
  H        38.7039201496       18.8004359110       12.9138726003
  H        36.5745341737       18.8146358968       14.2276562305
  H        37.2271894782       17.4129609162        9.2404778260
  H        20.3592109418       17.9906187036       12.6645746957
  H        35.1956601018       15.4676653359        4.0960061869
  H        37.3197746545       15.4252448211        5.4001525047
  H        38.7489384352       18.8170572055        3.1700770932
  H        36.6117811057       18.8469551338        1.8666651748
  H        37.2455928428       17.4121623489        6.8015330262
  H        35.1443132297       26.6834382530        3.3893416213
  H        28.5033923558       21.0703686139       15.9717802211
  H        25.7566453683       19.6242506630        4.1706710715
  H        23.5706282701       19.6816103072        5.3848931453
  H        22.2932484403       16.1850440973        3.2326086509
  H        24.4779470546       16.1505850556        2.0133145242
  H        23.7008237231       17.6417824392        6.8020940050
  H        29.0242117706       21.7087051574        1.7540043768
  H        29.1776432463       21.7281913375       14.6322270491
  H        32.1310489600       18.5662404243        2.9768846774
  H        27.3716260455       19.0205403380        0.0861424092
  H        14.8477761013       19.6492457218        4.1443374735
  H        17.0097828064       19.6969555717        5.3882091264
  H        18.3029734146       16.1894245810        3.2615289546
  H        16.1370429462       16.1576832257        2.0169373302
  H        16.9209020939       17.7056273807        6.8552663672
  H        46.0962544963       15.4590049481        4.0899963870
  H        43.9739727789       15.4169058874        5.4034321091
  H        42.5600623487       18.8343343654        3.2066723343
  H        44.6827389490       18.8518970342        1.8838857554
  H        44.0303038772       17.3678561891        6.8500329592
  H        20.2893685371       17.9238940998        3.4276704748
  H        46.0403139969       15.3960976314       12.0214536963
  H        43.9076322634       15.3448466492       10.7269240333
  H        42.5184660893       18.7920210850       12.8915139505
  H        44.6581036989       18.8307800389       14.1856018165
  H        44.0122094236       17.3429281599        9.2898400824
  H        46.1995416421       26.6826534098       12.6183031347
  H        52.7410672801       21.0624673195        0.1997321314
  H        14.8773937272       19.6792520624       11.8960456639
  H        17.0779795466       19.7581973011       10.7162093291
  H        18.3397663704       16.2400916220       12.8435752267
  H        16.1411116738       16.1849684672       14.0330473845
  H        16.9426526651       17.7253585970        9.2924098380
  H        52.3218274534       21.6730755470       14.2894060947
  H        52.0125641818       21.7015280221        1.5005401786
  H        49.0671905712       18.6073005783       13.1990693290
  H        13.2477664413       19.0161953976       15.9723163421
  H        29.9582967443       12.4292981397        4.2102548193
  H        28.8908941788       10.5005029737        5.3860303668
  H        25.2366201899       11.2145162201        3.2339357978
  H        26.3222014714       13.1344899851        2.0524265058
  H        27.1845108573       11.6619667846        6.7936603833
  H        31.0042627732       22.7673112616        4.0190927282
  H        32.0154594064       24.6503854266        5.3145319240
  H        35.6971719055       24.1399130905        3.1517812467
  H        34.6628448062       22.2684857955        1.8492801105
  H        33.6901156569       23.5727014109        6.7471187682
  H        25.7001193630        8.5936922935        3.4106065749
  H        30.9265417419       22.7943679230       12.0025442602
  H        31.9712163151       24.6365539297       10.6802629420
  H        35.6762717291       24.0239548601       12.7745507164
  H        34.6206880874       22.1707187151       14.0836181901
  H        33.6788748726       23.5532728946        9.1944962367
  H        40.5935314702       17.0884847358       12.6579576464
  H        32.5148406424       14.1495537893        0.2587530557
  H        29.9172708045       12.4926800658       11.9623752207
  H        28.8862601433       10.5959301552       10.6953283171
  H        25.1925827245       11.2081076859       12.8107746482
  H        26.2400699180       13.0961731813       14.0740300918
  H        27.1812036890       11.6774541463        9.2360973790
  H        33.3029588487       14.2051075765       14.4476545645
  H        33.4080462156       14.3940970191        1.6158917152
  H        32.0575220415       18.4827132573       13.1160762461
  H        30.2215596817       14.1893274469        0.0843135544
  H        16.1188797951        2.9635335542        4.1353613888
  H        14.9538326546        4.8207072640        5.3280917468
  H        17.3659995766        7.6861640780        3.2147308399
  H        18.5146601998        5.8186834205        2.0149864900
  H        16.7541988963        5.7399902480        6.7767128332
  H        44.8277971833       32.1403776986        3.9826730145
  H        45.9370900325       30.3415544317        5.3120223775
  H        43.6838706709       27.3781408775        3.1565628024
  H        42.6011308454       29.1899693004        1.8139200234
  H        44.2308708364       29.4371439526        6.7740568554
  H        14.8515305418        8.5466507255        3.3684761290
  H        44.8992134363       32.2342889975       11.9258332853
  H        46.0240838046       30.4132888582       10.6463999334
  H        43.7655330348       27.4841554385       12.8419227318
  H        42.6477384616       29.3178246596       14.1210667437
  H        44.2689537523       29.4709149482        9.2130473179
  H        35.1197885815       26.5945310475       12.6176219098
  H        36.6053140418       35.1341678299        0.1857713419
  H        16.1440395432        3.0129895608       11.8984543985
  H        14.9745055526        4.8564385779       10.6827786684
  H        17.3955931342        7.7473180470       12.7506493632
  H        18.5426827727        5.8934696991       13.9781495346
  H        16.7651892038        5.7558642801        9.2141838462
  H        36.2787106680       34.4824632136       14.2677597801
  H        36.3818153228       34.2089294910        1.5044842918
  H        40.5817304690       33.2034490169       13.1477422206
  H        17.4711306156        1.9483555859       15.9689452860
  H        28.8244615465       18.8932908478        4.4081102354
  H        30.2149391268       19.9965313631       11.9518312960
  H        32.2707656536       16.1350452902       11.7420097633
  H        31.1779015708       15.3920713647        4.4515286852
  H        28.2978821073       17.3273827613        6.8326763473
  H        29.6140670802       15.2330298354        6.8674084165
  H        31.3090553751       20.9184163360        8.9367150972
  H        32.9338351596       17.9734478226        9.5133084895
  H        28.2364824053       17.8553738700       11.1693649217
  H        18.8537597844        0.8691707260        4.3402735191
  H        40.5280986490       35.2288196256       11.9467466729
  H        42.3254862063       34.4202848521       11.5843391598
  H        22.0875581938        0.6918687242        4.3570744359
  H        11.5970290765       18.7128019952        4.3873822576
  H        52.2649411318       18.4307577605       11.6724672993
  H        49.2551469173       16.4766417735       11.5793878740
  H        10.1503881400       15.7982217866        4.2979884904
  H        50.8498309189       17.6924158461       11.9491565982
  H        10.0462059894       17.3944796186        4.0570638146
  H        20.2152290451        0.0022758913        4.0469984963
  H        39.1838673432       36.1246912177       11.6817746219
 Ni        31.0692590259       17.9980231107       11.0767872282
 Ni        31.1913835442       16.6541525984        8.3290334287
 Ni        29.9712702189       18.9163874871        7.7469981774
 Ni        30.3107735529       17.3486413288        5.4101067981
  O        10.6499627791       14.3650750165       13.4806768133
  O        12.6131907778       14.6575011838       14.5787710257
  O        49.1481051110       16.8458409730       15.9846412655
  O        50.3502201210       20.9361018448       13.6429732750
  O        48.3485257449       20.5934132118       14.6608478522
  O        11.0516221431       17.0538235272       14.4955950638
  O        50.3210001715       20.8817618209        2.4119880775
  O        48.3467172652       20.5868557680        1.3322671342
  O        49.5437951861       18.2484327522        2.0733813606