     586
 i =      255, E =     -4847.8521452088
  C        11.8584642535       14.0534574203       13.7364537602
  C        12.4559279196       12.8904949277       13.0180745674
  C        11.7042924397       12.1715339795       12.0764075475
  C        12.2807085006       11.1093123734       11.3840989640
  C        13.6212787479       10.7395467983       11.6118818464
  C        14.3544321649       11.4432004651       12.5852885624
  C        13.7814917498       12.5081771793       13.2767423760
  C        14.2608462298        9.6488472269       10.8385561848
  C        14.2562972991        9.6567983975        9.4168610970
  C        13.7433105445       10.7590107501        8.6629616370
  C        49.1267256224       21.2333129993       13.8746309540
  C        48.5499175276       22.4012230103       13.1475736834
  C        49.2999496419       23.0685530344       12.1665782191
  C        48.7329961970       24.1076597571       11.4333547588
  C        47.4024361393       24.5092676572       11.6619420358
  C        46.6714865879       23.8603985415       12.6754672588
  C        47.2339579685       22.8155293711       13.4048564849
  C        46.7721817333       25.5869261852       10.8646378222
  C        46.7613030921       25.5573646481        9.4428747221
  C        47.2613348532       24.4423164321        8.6993789543
  C        14.8602520189        8.5704445597        8.7036326131
  C        14.8914698604        8.5968322153       11.5152401637
  C        49.1131335069       21.2034539200        2.1504858655
  C        48.5277518158       22.3647801462        2.8776435591
  C        49.2670368234       23.0255540520        3.8704849830
  C        48.6907273988       24.0601477880        4.6019035924
  C        47.3602924773       24.4568836943        4.3637112673
  C        46.6398468502       23.8119527629        3.3402218236
  C        47.2133779937       22.7760091780        2.6084782447
  C        46.7218534341       25.5318581405        5.1547301860
  C        46.7335981567       25.5282070524        6.5764332977
  C        47.2491263981       24.4290435794        7.3328261080
  C        40.6189590792       17.1075646556        7.3070935967
  C        40.6274092505       17.1102976159        4.4978292153
  C        11.8829454463       14.0864570989        2.2907114882
  C        12.4723112434       12.9107266326        2.9950499245
  C        11.7147735158       12.1773240386        3.9209763727
  C        12.2814303605       11.0948757391        4.5893627446
  C        13.6203348110       10.7213640804        4.3576652747
  C        14.3583585166       11.4371744265        3.3970890902
  C        13.7928624267       12.5183339962        2.7244341661
  C        14.2539700642        9.6245846228        5.1280343873
  C        14.2526708068        9.6445291353        6.5498687262
  C        13.7428361457       10.7535078228        7.2969200218
  C        22.5177591042        3.2468005298       13.7501035227
  C        23.2445995649        4.3516755531       13.0577571325
  C        24.2496526598        4.0682857173       12.1206330867
  C        24.8890222263        5.1047770955       11.4443011492
  C        24.5407847501        6.4492490221       11.6836473714
  C        23.5644871497        6.7243505699       12.6587811066
  C        22.9204483203        5.6893408329       13.3337275486
  C        25.1544921300        7.5522610934       10.9051909156
  C        25.1149963207        7.5448392133        9.4832397551
  C        24.4019800471        6.5484563565        8.7430473999
  C        38.3044228837       31.9291629673       13.8427103928
  C        37.5804013215       30.8380086009       13.1309005936
  C        36.6248051818       31.1377165490       12.1480860246
  C        36.0146690509       30.1143744802       11.4279945404
  C        36.3452822645       28.7665657594       11.6697325427
  C        37.2711437471       28.4744573179       12.6889316097
  C        37.8856144295       29.4962841416       13.4074620221
  C        35.7497715577       27.6711520256       10.8728200545
  C        35.7830786168       27.6839904218        9.4516716986
  C        36.4851821418       28.6881649022        8.7132969074
  C        25.7358413297        8.6118171486        8.7566213095
  C        25.7659352334        8.6241855061       11.5696287687
  C        38.3284529846       31.9619490821        2.1602016272
  C        37.6074920006       30.8869127729        2.8991313957
  C        36.6812454738       31.1913905622        3.9082640806
  C        36.0751872124       30.1695736553        4.6364845536
  C        36.3814280189       28.8182976560        4.3789026182
  C        37.2836369845       28.5239219159        3.3384424777
  C        37.8918114514       29.5420314264        2.6115282046
  C        35.7812777373       27.7156927945        5.1636428804
  C        35.7992968691       27.7065401120        6.5853858983
  C        36.4926312009       28.6992072778        7.3467980386
  C        46.1355276760       26.6208067770        7.2865705177
  C        46.0878079662       26.5801656039        4.4786788663
  C        22.4596852545        3.2563130497        2.2657121796
  C        23.1506353808        4.3643618080        2.9944659674
  C        24.1489872460        4.0765211220        3.9389000284
  C        24.7757800781        5.1049021605        4.6389925251
  C        24.4252472049        6.4519146208        4.4173217563
  C        23.4485167842        6.7329317577        3.4428864431
  C        22.8169303698        5.7047138429        2.7435420587
  C        25.0610322070        7.5494144931        5.1894974423
  C        25.0664714846        7.5433605506        6.6128112508
  C        24.3775640705        6.5486370710        7.3764743477
  C        26.5783100541       17.7830213803       13.7897199802
  C        25.2697471622       17.8188809484       13.0661322123
  C        25.0203977656       18.8152985503       12.1095931865
  C        23.8136565526       18.8363491392       11.4144407436
  C        22.8223182484       17.8636837974       11.6555539573
  C        23.0679280425       16.8896209122       12.6410191454
  C        24.2775885746       16.8637826091       13.3342203959
  C        21.5543880994       17.8558976671       10.8857225395
  C        21.5601097435       17.8401345601        9.4637360515
  C        22.7678132190       17.7107275237        8.7075014594
  C        34.4198789217       17.2325324532       13.8669435771
  C        35.7141193334       17.1750975083       13.1284736521
  C        35.9439064434       16.1792844597       12.1662842671
  C        37.1307406139       16.1618390844       11.4396387485
  C        38.1221365286       17.1378617654       11.6580987754
  C        37.8984468612       18.1122653873       12.6487935776
  C        36.7079006479       18.1353182873       13.3715018822
  C        39.3784115169       17.1426170712       10.8745101967
  C        39.3687723636       17.1418412128        9.4531203519
  C        38.1576724256       17.2513909461        8.6993341937
  C        20.3168288683       17.8726355559        8.7510723908
  C        20.3282398008       17.8669249157       11.5637777390
  C        34.4384571701       17.2434410456        2.1830017716
  C        35.7399429518       17.1418548937        2.9077322750
  C        35.9452476105       16.1601855098        3.8891751423
  C        37.1349866179       16.1308277331        4.6134446330
  C        38.1477987277       17.0807950523        4.3751314039
  C        37.9482112492       18.0347097701        3.3598501644
  C        36.7578847792       18.0698041152        2.6397016862
  C        39.3979868361       17.0979550969        5.1668737690
  C        39.3790011755       17.1201264026        6.5878914896
  C        38.1633687220       17.2398461727        7.3328920251
  C        35.1764077233       26.6238508326        7.2904804200
  C        35.1905455995       26.6447835898        4.4816625048
  C        26.5716005055       17.8187601093        2.3341077537
  C        25.2586253242       17.8601681857        3.0423190190
  C        24.9953981016       18.8530482885        3.9974583057
  C        23.7763965325       18.8719174664        4.6688544603
  C        22.7923945121       17.8978089924        4.4075693667
  C        23.0502731175       16.9296285959        3.4205830047
  C        24.2700847767       16.9084927296        2.7480840701
  C        21.5268327849       17.8736706273        5.1755829368
  C        21.5459386281       17.8474583494        6.5965167330
  C        22.7611107546       17.7145113209        7.3412290527
  C        14.0460027384       17.8293305724        2.2914753734
  C        15.3518148995       17.8857767287        3.0118399000
  C        15.6118888138       18.8868361174        3.9604307015
  C        16.8223861354       18.9031770939        4.6502788537
  C        17.8052145523       17.9213717829        4.4124014173
  C        17.5508966434       16.9462350187        3.4299124444
  C        16.3398951253       16.9250658982        2.7420885909
  C        19.0719867414       17.8939307276        5.1828131682
  C        19.0649062874       17.8772674337        6.6046421773
  C        17.8541624468       17.7800186826        7.3602776519
  C        46.8024812005       17.2162224829        2.1609597468
  C        45.5077583297       17.1473082380        2.8991232540
  C        45.3019227339       16.1685727564        3.8837717806
  C        44.1168307294       16.1445049353        4.6144150257
  C        43.1068766010       17.0986862102        4.3824888791
  C        43.3088254297       18.0551814887        3.3691201885
  C        44.4950992819       18.0835748651        2.6397908982
  C        41.8538497240       17.1073557865        5.1724603662
  C        41.8634895252       17.1195276175        6.5944714721
  C        43.0740724924       17.2262873728        7.3491350803
  C        20.3089733457       17.8738654063        7.3169901603
  C        20.2976904686       17.8758374474        4.5041980431
  C        46.7850760335       17.2345476753       13.8793297244
  C        45.4846332014       17.1369649151       13.1555613888
  C        45.2665750199       16.1454336239       12.1868255613
  C        44.0801092608       16.1249310470       11.4572320050
  C        43.0808509882       17.0929509747       11.6783997891
  C        43.2905972139       18.0559895926       12.6833046514
  C        44.4780834404       18.0828183798       13.4080647805
  C        41.8325374074       17.1158935875       10.8835631686
  C        41.8526435000       17.1222276769        9.4620453570
  C        43.0690722763       17.2244617875        8.7159533234
  C        46.1532442126       26.6372097879        8.7211150084
  C        46.1621707341       26.6560153578       11.5307592010
  C        14.0407213299       17.8261009168       13.7011222709
  C        15.3562775542       17.8864790659       13.0028705959
  C        15.6350382311       18.8996595165       12.0739388949
  C        16.8611325571       18.9235719602       11.4139351551
  C        17.8332586933       17.9333149619       11.6587739389
  C        17.5608379970       16.9477338710       12.6243348442
  C        16.3370708492       16.9231042365       13.2875288266
  C        19.0995168796       17.8975661313       10.8919702003
  C        19.0793415685       17.8787352784        9.4710856315
  C        17.8611856741       17.7813337158        8.7263520705
  C        28.8014814877       14.0891570066        2.3931266038
  C        28.1905417350       12.9167921486        3.0831101804
  C        28.9158694831       12.1782058494        4.0297486364
  C        28.3193029243       11.1006224802        4.6794090283
  C        26.9831693050       10.7403461758        4.4106276063
  C        26.2792704810       11.4611234686        3.4289428585
  C        26.8741421946       12.5371868702        2.7749801417
  C        26.3175198886        9.6607628662        5.1757216265
  C        26.3185616368        9.6858161438        6.5970438574
  C        26.8322818641       10.7970086286        7.3385211305
  C        32.1816195625       21.2377011842        2.1466038261
  C        32.7813900555       22.3993964781        2.8666051790
  C        32.0436090719       23.0673048097        3.8557781962
  C        32.6198348852       24.1032674682        4.5838570924
  C        33.9499772769       24.4984333069        4.3438346216
  C        34.6703079925       23.8486415840        3.3238904708
  C        34.0963501569       22.8073703915        2.5973498979
  C        34.5839151638       25.5712767148        5.1426761547
  C        34.5857922487       25.5384112813        6.5641474541
  C        34.0864522956       24.4193210788        7.3030208336
  C        25.7141816790        8.6086825542        7.3216351480
  C        25.6728327309        8.6109577863        4.5082984961
  C        32.1133371935       21.2288797410       13.8769452825
  C        32.7175579380       22.3716838453       13.1299164656
  C        31.9898399929       23.0262727950       12.1243873544
  C        32.5762808034       24.0511725581       11.3859334062
  C        33.9035997518       24.4512194110       11.6354682671
  C        34.6149198304       23.8084757277       12.6665039309
  C        34.0332371943       22.7773171514       13.3999414625
  C        34.5456394420       25.5313230125       10.8517533793
  C        34.5654848429       25.5190189654        9.4301139529
  C        34.0760531997       24.4107038413        8.6696528119
  C        40.6132617062       17.1140195634        8.7415514195
  C        40.6028215264       17.1458167212       11.5519274749
  C        28.8075886912       14.1024863822       13.7688690813
  C        28.2047442405       12.9473784206       13.0345611646
  C        28.9423224094       12.2314690352       12.0782863383
  C        28.3615355622       11.1626901121       11.3966915008
  C        27.0266063051       10.7813272186       11.6462069869
  C        26.3079354169       11.4848592587       12.6304984014
  C        26.8868413699       12.5528994788       13.3137174758
  C        26.3780715802        9.6836265877       10.8855410360
  C        26.3525631547        9.6960127719        9.4638789444
  C        26.8474238881       10.8022600021        8.7040719704
  C        18.1355936611        3.1810010193        2.3221825724
  C        17.4063107766        4.2782703240        3.0208173277
  C        16.3906267533        3.9998449293        3.9483605360
  C        15.7428588413        5.0397777213        4.6118999802
  C        16.0946720290        6.3835306376        4.3722300833
  C        17.0839822860        6.6531189085        3.4083970181
  C        17.7331012955        5.6158169105        2.7433051402
  C        15.4703257111        7.4911967487        5.1353114599
  C        15.4855139368        7.4904464561        6.5570325955
  C        16.1868867234        6.4967302822        7.3102404409
  C        42.9459166945       31.8595004580        2.0779956383
  C        43.6462525317       30.7718754282        2.8219855302
  C        44.5919744067       31.0931664145        3.8078836519
  C        45.1976568771       30.0875902560        4.5555243310
  C        44.8709703280       28.7345618032        4.3408168873
  C        43.9449189426       28.4202545088        3.3278092696
  C        43.3361155691       29.4254245596        2.5798056152
  C        45.4885882737       27.6552622825        5.1439751446
  C        45.4927590416       27.6808954641        6.5656596258
  C        44.8056067559       28.6889134191        7.3122653858
  C        14.8565614724        8.5629458595        7.2694055067
  C        14.8751308647        8.5630316036        4.4567350925
  C        42.9464217906       31.9615360035       13.8038526850
  C        43.6915956626       30.8854388699       13.0903074499
  C        44.6563808751       31.1913151322       12.1181811810
  C        45.2778433222       30.1716993897       11.4004423251
  C        44.9538361684       28.8214041052       11.6379187547
  C        44.0200892536       28.5237724060       12.6484567889
  C        43.3918806143       29.5405612734       13.3606409352
  C        45.5628751722       27.7239936284       10.8526869615
  C        45.5332198488       27.7173391433        9.4313934899
  C        44.8268593601       28.7075458503        8.6784496433
  C        35.1670945123       26.6131724658        8.7250032094
  C        35.1489822283       26.5941730625       11.5343557809
  C        18.1486314038        3.2468689862       13.7015921480
  C        17.4297966655        4.3437074270       12.9925170924
  C        16.4147647688        4.0523320751       12.0687705386
  C        15.7663860960        5.0829034173       11.3933496450
  C        16.1207624645        6.4281960822       11.6162141520
  C        17.1118628310        6.7116629931       12.5737432551
  C        17.7596136107        5.6828183223       13.2535404774
  C        15.4903384525        7.5238855228       10.8436933299
  C        15.4962999034        7.5072535285        9.4225506064
  C        16.1930093483        6.5055113924        8.6758494190
  H        10.6721518654       12.4656196113       11.8993848226
  H        11.6944559765       10.5507865552       10.6575651525
  H        15.3914883483       11.1686906988       12.7669928838
  H        14.3509278093       13.0714420462       14.0121699561
  H        13.3763356170       11.6311425126        9.1962855691
  H        50.3226791445       22.7485641948       11.9818691920
  H        49.3194952092       24.6229497223       10.6758012244
  H        45.6419931597       24.1611815634       12.8586264458
  H        46.6629577515       22.2903294875       14.1669887496
  H        47.6299480053       23.5759614910        9.2410478670
  H        14.8716966642        8.5880660306       12.6035444292
  H        50.2871078958       22.7027514889        4.0653560628
  H        49.2691611945       24.5756857625        5.3653199606
  H        45.6104463270       24.1092073908        3.1511518301
  H        46.6525298080       22.2538220094        1.8369533268
  H        47.6080123340       23.5519691581        6.8019304618
  H        40.6300831987       17.0699039222        3.4102172433
  H        48.6869613621       14.0952220240       15.7949003289
  H        10.6812261910       12.4662181755        4.0982319938
  H        11.6896263712       10.5242887706        5.3018957157
  H        15.3938904379       11.1595423727        3.2113388821
  H        14.3652663817       13.0879608493        1.9961556375
  H        13.3761416585       11.6221637097        6.7582576131
  H        47.9302059772       14.2184946326        1.7161076929
  H        47.7798417511       14.3736017354       14.4901178455
  H        49.0827395667       18.5521595314        2.8721392128
  H        10.4157444373       14.1343408561        0.0039491931
  H        24.5074415294        3.0286253423       11.9311146151
  H        25.6665803727        4.8818411649       10.7167944467
  H        23.2863356444        7.7584095119       12.8518069315
  H        22.1447813612        5.8951548735       14.0674551766
  H        23.8436846554        5.7931229407        9.2883668193
  H        36.3851775339       32.1799232303       11.9507408357
  H        35.2730247691       30.3497197894       10.6678447830
  H        37.5335312057       27.4364087633       12.8823654523
  H        38.6263218780       29.2790226749       14.1733168186
  H        37.0488643854       29.4396982158        9.2584231032
  H        25.8085530276        8.6086294171       12.6572862725
  H        36.4577877572       32.2346484543        4.1197390230
  H        35.3520436778       30.4106490742        5.4124703861
  H        37.5310113698       27.4846347775        3.1325196820
  H        38.6117102751       29.3200391546        1.8276185634
  H        37.0630212592       29.4588132547        6.8200730345
  H        46.1091552165       26.5875488314        3.3906404944
  H        44.6681362929       35.1160668565       15.8087672776
  H        24.4255818193        3.0378709331        4.1054265198
  H        25.5546928111        4.8733112242        5.3623396551
  H        23.1650905590        7.7678846790        3.2623726150
  H        22.0478173635        5.9200952056        2.0053356916
  H        23.7997054385        5.7939296893        6.8507531147
  H        44.9534278523       34.3901882384        1.7001361139
  H        44.9008536137       34.2064883989       14.4854949458
  H        40.6655030903       33.2089250690        2.8580465025
  H        23.1509826755        1.9576413409        0.0113969451
  H        25.7886866419       19.5654735280       11.9333429855
  H        23.6207623601       19.6155220409       10.6799699348
  H        22.3118235312       16.1313524895       12.8343837780
  H        24.4804689326       16.1000651462       14.0815429957
  H        23.7041641521       17.5786061831        9.2418094537
  H        35.1813622231       15.4215703992       12.0025903687
  H        37.3076849832       15.3836900236       10.7003792024
  H        38.6566595868       18.8733280660       12.8214218664
  H        36.5172331208       18.9016514136       14.1192805603
  H        37.2181661612       17.3763395608        9.2306928695
  H        20.3316766957       17.9048817680       12.6516553092
  H        35.1573092810       15.4341481658        4.0794251983
  H        37.2934922087       15.3661037589        5.3708125024
  H        38.7234591657       18.7742438205        3.1702856606
  H        36.5824143702       18.8246010258        1.8768892303
  H        37.2285220680       17.3556845351        6.7922303346
  H        35.1547263858       26.6738675390        3.3942787202
  H        28.5036850163       21.0808369598       15.8717041873
  H        25.7579427814       19.6024635187        4.1958620611
  H        23.5701866039       19.6459053477        5.4049725959
  H        22.2977708788       16.1715098049        3.2134243499
  H        24.4866342254       16.1505585586        1.9990768962
  H        23.6928262545       17.5859090779        6.7982532776
  H        29.0036529096       21.7202554810        1.7518113246
  H        29.1797533387       21.7200409883       14.5449534661
  H        32.1359483135       18.6025625331        2.9504500309
  H        27.3648493241       19.0110557476        0.1004835041
  H        14.8548109692       19.6463418347        4.1423339225
  H        17.0214979525       19.6840515529        5.3810883803
  H        18.3007425808       16.1815349884        3.2379100977
  H        16.1298886960       16.1588158735        1.9997425818
  H        16.9131111400       17.6734826065        6.8286616423
  H        46.0882242945       15.4409806333        4.0707200814
  H        43.9592887574       15.3789712265        5.3710378806
  H        42.5372131548       18.7997865571        3.1846178394
  H        44.6673038444       18.8375191731        1.8751876627
  H        44.0136633272       17.3407581631        6.8162069345
  H        20.2956130521       17.9178362412        3.4164643440
  H        46.0419932822       15.4039528989       12.0080435262
  H        43.9142994399       15.3538735470       10.7079841369
  H        42.5255741343       18.8089622597       12.8610255432
  H        44.6596991431       18.8451388506       14.1617053234
  H        44.0049737059       17.3367163034        9.2557000254
  H        46.1989299470       26.6825335362       12.6182076165
  H        52.7413993546       21.0626975229        0.1998109902
  H        14.8816984180       19.6617172962       11.8869483574
  H        17.0795243146       19.7119311333       10.6968290318
  H        18.3044200636       16.1775693380       12.8186262249
  H        16.1090652574       16.1507614634       14.0179350894
  H        16.9253612153       17.6760552745        9.2670147883
  H        52.3230078329       21.6736009334       14.2890613992
  H        52.0137960874       21.7026851672        1.5006817126
  H        49.0677691866       18.6083601795       13.1988258668
  H        13.2476231824       19.0157987485       15.9711737623
  H        29.9430868478       12.4635700113        4.2452019964
  H        28.8841174046       10.5256792312        5.4100346652
  H        25.2465789788       11.1939314492        3.2142641869
  H        26.3287564322       13.1147291665        2.0325205682
  H        27.1898199955       11.6659510140        6.7943938431
  H        31.0227035571       22.7477478749        4.0489998524
  H        32.0433161297       24.6204949003        5.3475659757
  H        35.6997467461       24.1450720829        3.1333123468
  H        34.6574506819       22.2801043321        1.8292366674
  H        33.7329325409       23.5487420957        6.7578075975
  H        25.6935797161        8.5913663790        3.4200825258
  H        30.9670330357       22.7118986340       11.9287533336
  H        32.0053136857       24.5607060241       10.6127929489
  H        35.6427504108       24.1061517717       12.8636074596
  H        34.5868073895       22.2584150986       14.1790464433
  H        33.7156249526       23.5334643029        9.1994758279
  H        40.5979372877       17.1172217916       12.6399163716
  H        32.5158736593       14.1573135747        0.2534800720
  H        29.9776709167       12.5166303088       11.8995879848
  H        28.9423037861       10.6018360433       10.6672153528
  H        25.2756979081       11.2051842087       12.8313066068
  H        26.3274879616       13.1094615257       14.0620804780
  H        27.2140463822       11.6758756425        9.2348159637
  H        33.3023080630       14.2178323716       14.4417028335
  H        33.4055482535       14.3866152858        1.6166459055
  H        32.0303548480       18.4706409550       13.0281571993
  H        30.2374908042       14.1958169864        0.0686937467
  H        16.1185954818        2.9633233303        4.1347249788
  H        14.9533712123        4.8203224071        5.3274982339
  H        17.3662457975        7.6860246249        3.2151979593
  H        18.5150132253        5.8185093307        2.0153378958
  H        16.7533515736        5.7393041896        6.7767665578
  H        44.8284393411       32.1402292406        3.9819385814
  H        45.9376625247       30.3412697903        5.3113595414
  H        43.6819496904       27.3782234894        3.1578860973
  H        42.5992661922       29.1901228162        1.8153565221
  H        44.2301914491       29.4366220822        6.7739367901
  H        14.8514045772        8.5463060846        3.3685137129
  H        44.9001123182       32.2339823945       11.9268841218
  H        46.0248853690       30.4128573853       10.6473153074
  H        43.7628641315       27.4840731133       12.8398224469
  H        42.6451761521       29.3177880040       14.1188900600
  H        44.2682640145       29.4703636595        9.2130419880
  H        35.1029598101       26.6090754707       12.6216371674
  H        36.6049958730       35.1339897227        0.1859211589
  H        16.1438650185        3.0127246085       11.8989309343
  H        14.9741915934        4.8559499273       10.6831522758
  H        17.3950696768        7.7471763045       12.7508439809
  H        18.5422608808        5.8933525463       13.9785207434
  H        16.7642697734        5.7551423636        9.2142916446
  H        36.2783430352       34.4825338672       14.2681187524
  H        36.3807864348       34.2093156316        1.5051340894
  H        40.5802600035       33.2026306704       13.1483171061
  H        17.4712373766        1.9476037163       15.9690923237
  H        28.7495505334       19.1030916578        4.3297269191
  H        30.1896911719       19.8054226727       11.6748187429
  H        32.4465024958       16.3508179755       11.7331085968
  H        30.8006266290       15.4385516222        4.2992970092
  H        28.1823085367       17.4360123929        6.8770760292
  H        28.9266435896       15.3433126875        6.4915963171
  H        31.8377148651       20.0702806775        9.3899642712
  H        32.8716615277       17.2937069211        9.4023435941
  H        29.2273091416       16.8656110757        9.4397835819
  H        18.8531531902        0.8688674083        4.3404865008
  H        40.5275798437       35.2292118748       11.9468911155
  H        42.3243746676       34.4190284493       11.5856025929
  H        22.0878449511        0.6920490372        4.3565108555
  H        11.5969020680       18.7127694549        4.3876517699
  H        52.2650196900       18.4316416073       11.6723567681
  H        49.2551100868       16.4769988502       11.5793238420
  H        10.1505485311       15.7982917133        4.2976011675
  H        50.8503295086       17.6925731348       11.9490559211
  H        10.0461492553       17.3947398559        4.0569762448
  H        20.2144498793        0.0022160935        4.0471720732
  H        39.1834035877       36.1244461764       11.6813604707
 Ni        31.2851559473       18.0120575184       10.5737734702
 Ni        31.0755867113       16.1269598119        7.7474879293
 Ni        29.9744464118       18.9644166789        7.8293120381
 Ni        30.0108089352       17.3816009398        5.2464945791
  O        10.6496594286       14.3651468545       13.4807047980
  O        12.6129804720       14.6572782313       14.5787418605
  O        49.1477572777       16.8459125362       15.9846493130
  O        50.3501533115       20.9360201213       13.6430453602
  O        48.3484809253       20.5933119675       14.6608567758
  O        11.0512146906       17.0539910174       14.4954782254
  O        50.3209283254       20.8816897721        2.4119807957
  O        48.3467104839       20.5867086667        1.3322305106
  O        49.5435380588       18.2484543443        2.0733786125