     586
 i =      176, E =     -4847.8857633625
  C        11.8588879775       14.0534707587       13.7363843886
  C        12.4562961972       12.8905672942       13.0178997075
  C        11.7043506570       12.1715682937       12.0764716024
  C        12.2804924108       11.1093110285       11.3839972281
  C        13.6211341425       10.7394383489       11.6113015649
  C        14.3546182865       11.4432155108       12.5844043540
  C        13.7819692569       12.5082589749       13.2760545086
  C        14.2602418546        9.6484195572       10.8379659828
  C        14.2546990835        9.6556405157        9.4162371329
  C        13.7414354408       10.7575583641        8.6621088156
  C        49.1269459722       21.2331013179       13.8745072463
  C        48.5501493417       22.4010042850       13.1473654819
  C        49.3000448755       23.0681682755       12.1661771397
  C        48.7330020988       24.1072232249       11.4329361574
  C        47.4025273418       24.5089411294       11.6617846720
  C        46.6717121780       23.8602056453       12.6754825344
  C        47.2342716794       22.8153919359       13.4048588623
  C        46.7721325208       25.5865523012       10.8645443869
  C        46.7609680812       25.5569614279        9.4427886477
  C        47.2609491884       24.4419323665        8.6992255153
  C        14.8580104879        8.5688548891        8.7030761912
  C        14.8912550243        8.5966556658       11.5147167195
  C        49.1133021957       21.2034866366        2.1504442288
  C        48.5278493381       22.3648883105        2.8775726226
  C        49.2669540982       23.0255976803        3.8705734682
  C        48.6905015081       24.0601199339        4.6020039225
  C        47.3601153646       24.4568915930        4.3636026274
  C        46.6398430997       23.8120248517        3.3399543324
  C        47.2135319793       22.7761674929        2.6082020136
  C        46.7215086577       25.5317460358        5.1546667421
  C        46.7331497062       25.5279684520        6.5763748134
  C        47.2486144750       24.4287032748        7.3326739426
  C        40.6347854795       17.1314347239        7.3276843412
  C        40.6502645926       17.1850782284        4.5183898541
  C        11.8828736563       14.0862085110        2.2904779976
  C        12.4714643138       12.9097710712        2.9943419033
  C        11.7133647277       12.1767614218        3.9201669139
  C        12.2791157841       11.0937421522        4.5883949957
  C        13.6177172806       10.7191175909        4.3566960750
  C        14.3562557342       11.4344735763        3.3961450314
  C        13.7916722936       12.5162504523        2.7236494136
  C        14.2506174356        9.6219414048        5.1272351207
  C        14.2496295819        9.6422295847        6.5491088146
  C        13.7403462822       10.7515418386        7.2960479625
  C        22.5127320243        3.2442600221       13.7458286475
  C        23.2276478873        4.3476021626       13.0437554673
  C        24.2242652181        4.0634699760       12.0984057132
  C        24.8546123322        5.1001646501       11.4154538713
  C        24.5040714723        6.4433240031       11.6574562241
  C        23.5343686833        6.7189613195       12.6387233864
  C        22.8994741974        5.6839086199       13.3203775792
  C        25.1190427339        7.5456104827       10.8834443416
  C        25.1036828961        7.5357409664        9.4618215895
  C        24.3950886412        6.5427365199        8.7133190991
  C        38.3031320169       31.9308119456       13.8439041006
  C        37.5754577389       30.8415399157       13.1334874914
  C        36.6184587192       31.1451153481       12.1532791956
  C        36.0038273857       30.1243169201       11.4337655183
  C        36.3317492556       28.7757338620       11.6738917084
  C        37.2591793310       28.4796984204       12.6904052393
  C        37.8780730443       29.4990916946       13.4084811386
  C        35.7315520441       27.6828986880       10.8776615878
  C        35.7636785303       27.6955352962        9.4564744521
  C        36.4676474504       28.6978798032        8.7172651843
  C        25.7433364265        8.5974053896        8.7439387247
  C        25.7140439277        8.6205162601       11.5566096430
  C        38.3283181151       31.9616815839        2.1616546403
  C        37.6062435398       30.8865957457        2.9010536859
  C        36.6764474219       31.1917592272        3.9068492200
  C        36.0684335770       30.1708046330        4.6350133371
  C        36.3758080067       28.8188823215        4.3815002145
  C        37.2821221233       28.5236814442        3.3446596661
  C        37.8921544747       29.5410446677        2.6176736048
  C        35.7727676936       27.7176765598        5.1672730007
  C        35.7850210596       27.7130356007        6.5894183294
  C        36.4771288224       28.7066922775        7.3506687710
  C        46.1350539968       26.6205059690        7.2865919764
  C        46.0874666706       26.5801193823        4.4787006125
  C        22.4649783606        3.2566030819        2.2646377643
  C        23.1653927844        4.3637327802        2.9857554666
  C        24.1722115477        4.0745587556        3.9207728685
  C        24.8074859220        5.1023104538        4.6140408028
  C        24.4569621884        6.4499041691        4.3956532187
  C        23.4730916703        6.7324341780        3.4290867718
  C        22.8331740670        5.7047923302        2.7361802710
  C        25.0957938241        7.5442233810        5.1701377795
  C        25.0919447240        7.5349265418        6.5928864845
  C        24.3880770439        6.5434340307        7.3468395820
  C        26.6256246375       17.8611665219       13.7748182744
  C        25.3186970059       17.9055482738       13.0502910859
  C        25.0640424545       18.8918033114       12.0840238185
  C        23.8507353373       18.9103925956       11.3987093592
  C        22.8544688682       17.9467347719       11.6574444575
  C        23.1058302789       16.9837145685       12.6530058992
  C        24.3211410217       16.9590366779       13.3354857499
  C        21.5805352887       17.9317872133       10.8945613490
  C        21.5802745067       17.9054029197        9.4720082879
  C        22.7846574888       17.7690575321        8.7115106257
  C        34.4236322596       17.2223196732       13.8781028915
  C        35.7223549617       17.1595305853       13.1469479778
  C        35.9343237126       16.1817800690       12.1625606538
  C        37.1206803857       16.1611240590       11.4355864815
  C        38.1261896015       17.1177527293       11.6734703103
  C        37.9192400385       18.0734624202       12.6859278228
  C        36.7306985691       18.0983091340       13.4115239181
  C        39.3813874699       17.1236720514       10.8901161941
  C        39.3765351459       17.1379367799        9.4688473766
  C        38.1682813703       17.2555131143        8.7116803046
  C        20.3331383832       17.9293654102        8.7642196357
  C        20.3558844640       17.9398781058       11.5775845319
  C        34.4701485419       17.2599662772        2.1927458966
  C        35.7659552529       17.1966999345        2.9294991699
  C        36.0205233739       16.1626459324        3.8429109233
  C        37.2065473486       16.1454197870        4.5725451172
  C        38.1696049582       17.1576862197        4.3973823023
  C        37.9222992262       18.1698259292        3.4533305255
  C        36.7306678023       18.1946523002        2.7334030617
  C        39.4217033511       17.1665597723        5.1857159225
  C        39.3981569672       17.1593485999        6.6052433164
  C        38.1783503863       17.2627698063        7.3452795487
  C        35.1583398272       26.6332870223        7.2959912987
  C        35.1848451550       26.6437561573        4.4868715455
  C        26.5676810467       17.8255348787        2.3306815421
  C        25.2562441979       17.8711317358        3.0399047928
  C        25.0002396083       18.8667690517        3.9953759067
  C        23.7819353690       18.8910059002        4.6680921417
  C        22.7921929872       17.9216966629        4.4101554573
  C        23.0438310051       16.9512596205        3.4233465226
  C        24.2623985019       16.9237672659        2.7485735488
  C        21.5288526129       17.9026821372        5.1827651340
  C        21.5533760774       17.8891200030        6.6042677845
  C        22.7713800975       17.7616733963        7.3452232031
  C        14.0470767143       17.8290603874        2.2943582115
  C        15.3511844771       17.8867708251        3.0200959752
  C        15.6069402123       18.8899777359        3.9681047571
  C        16.8156432363       18.9116935233        4.6615559740
  C        17.8033220375       17.9330029351        4.4296035638
  C        17.5522873871       16.9541391281        3.4493503470
  C        16.3431224242       16.9278377563        2.7573492456
  C        19.0724737210       17.9158749670        5.1988583144
  C        19.0718644170       17.9131630814        6.6214614050
  C        17.8650910836       17.8186660442        7.3834568846
  C        46.8061990182       17.2203314209        2.1645614424
  C        45.5175121912       17.1641608049        2.9121722027
  C        45.3087232259       16.1888755630        3.8993098125
  C        44.1278404420       16.1777520081        4.6366408822
  C        43.1269735881       17.1423314254        4.4085338724
  C        43.3331886179       18.0974890492        3.3950368266
  C        44.5145559161       18.1122641112        2.6585997810
  C        41.8747482349       17.1583568442        5.1971442413
  C        41.8810878404       17.1484062234        6.6188230180
  C        43.0900604550       17.2382686858        7.3784475430
  C        20.3190241398       17.9197801343        7.3293760540
  C        20.2965294187       17.8954417324        4.5164545408
  C        46.7861345307       17.2307608977       13.8854269090
  C        45.4827441592       17.1241503599       13.1716023717
  C        45.2653734797       16.1266004312       12.2093889237
  C        44.0776370300       16.1005323908       11.4830788614
  C        43.0790500812       17.0687215283       11.7032260618
  C        43.2862007653       18.0352222608       12.7048259393
  C        44.4752388263       18.0679229388       13.4258140141
  C        41.8342522399       17.0931642316       10.9055371362
  C        41.8604443608       17.1132935708        9.4850031193
  C        43.0802154476       17.2193189806        8.7448365682
  C        46.1528831742       26.6368606085        8.7211342216
  C        46.1621592694       26.6556007835       11.5307652077
  C        14.0464845924       17.8324978347       13.7039865590
  C        15.3683305325       17.9085526776       13.0150370837
  C        15.6420903367       18.9244389662       12.0869152943
  C        16.8717367640       18.9629635182       11.4331759339
  C        17.8557458533       17.9845726229       11.6809988711
  C        17.5889325581       16.9980787610       12.6479070676
  C        16.3614616167       16.9591574286       13.3054431838
  C        19.1229487784       17.9588035533       10.9114061693
  C        19.0983004416       17.9340158547        9.4897468900
  C        17.8779284102       17.8280448726        8.7494722544
  C        28.8099300404       14.0857969080        2.3656478551
  C        28.2091718068       12.9128922303        3.0643834510
  C        28.9496305027       12.1671845484        3.9935314556
  C        28.3620883642       11.0900094892        4.6527566017
  C        27.0204405826       10.7349184675        4.4069237371
  C        26.3001512944       11.4633377612        3.4429142038
  C        26.8852020477       12.5404460403        2.7822375782
  C        26.3614901084        9.6501957757        5.1712787169
  C        26.3630915110        9.6673652725        6.5928445214
  C        26.8949887864       10.7651717067        7.3418957318
  C        32.1868989571       21.2306346044        2.1538503516
  C        32.7868822398       22.3843359443        2.8859613936
  C        32.0422271784       23.0583187956        3.8659322264
  C        32.6149345097       24.0997897455        4.5900049819
  C        33.9463545228       24.4933262315        4.3551448683
  C        34.6751557696       23.8327837042        3.3481913560
  C        34.1056319130       22.7861400034        2.6264808536
  C        34.5750355719       25.5728173722        5.1495435987
  C        34.5694797249       25.5463490167        6.5709756067
  C        34.0642611119       24.4308437861        7.3111870345
  C        25.7414420668        8.5941090133        7.3092450178
  C        25.7135082060        8.6067092226        4.4965401980
  C        32.1064261809       21.2294702619       13.8767351274
  C        32.6985479598       22.3826064410       13.1363030184
  C        31.9654444831       23.0456745284       12.1399571665
  C        32.5488561047       24.0726631803       11.4017259098
  C        33.8790820448       24.4682007093       11.6436228809
  C        34.5944147019       23.8204919241       12.6688613413
  C        34.0160104005       22.7868526856       13.4011117990
  C        34.5210681526       25.5473925096       10.8584506160
  C        34.5398573206       25.5342004200        9.4368474117
  C        34.0482287187       24.4262496105        8.6776054591
  C        40.6235430080       17.1168468748        8.7612706765
  C        40.6036752310       17.1178408143       11.5705427644
  C        28.7449990680       14.0605096486       13.8254119898
  C        28.1438156841       12.9022279189       13.0946905849
  C        28.9175007906       12.1371902045       12.2059413939
  C        28.3390017419       11.0870418576       11.4935149908
  C        26.9774885274       10.7663971794       11.6580352571
  C        26.2211013682       11.5137174020       12.5800577019
  C        26.7936264567       12.5702886916       13.2858991416
  C        26.3436739019        9.6726431471       10.8805978920
  C        26.3580398616        9.6773422472        9.4594867900
  C        26.8934653882       10.7700298714        8.7080044131
  C        18.1361069154        3.1799290353        2.3224787256
  C        17.4048663951        4.2763329254        3.0205613040
  C        16.3900731555        3.9969809617        3.9487974939
  C        15.7412291440        5.0364336055        4.6121196375
  C        16.0911472141        6.3805793708        4.3717573869
  C        17.0795285464        6.6509580746        3.4071861711
  C        17.7296357184        5.6142101195        2.7422139952
  C        15.4663562600        7.4880714362        5.1348159382
  C        15.4820710897        7.4878694591        6.5565632499
  C        16.1838258325        6.4944954944        7.3098709471
  C        42.9457400527       31.8594240582        2.0778711488
  C        43.6458677404       30.7719598964        2.8222793263
  C        44.5915735312       31.0931467353        3.8082286201
  C        45.1971846314       30.0875096167        4.5558556685
  C        44.8705322947       28.7344952778        4.3410302002
  C        43.9444729011       28.4202888506        3.3279920453
  C        43.3356983149       29.4255089250        2.5800540522
  C        45.4881556216       27.6551203113        5.1440798042
  C        45.4922948357       27.6806532143        6.5657619079
  C        44.8051469571       28.6885933050        7.3124733282
  C        14.8535299774        8.5607259898        7.2688117137
  C        14.8712087822        8.5599128521        4.4561308611
  C        42.9463383135       31.9612039035       13.8039669276
  C        43.6916226661       30.8849927579       13.0905956976
  C        44.6562420668       31.1908249956       12.1182996114
  C        45.2776557717       30.1712051681       11.4005342412
  C        44.9537083631       28.8209267807       11.6381014916
  C        44.0202995668       28.5233131152       12.6489563639
  C        43.3921486373       29.5401166313       13.3611788548
  C        45.5627079596       27.7235547010       10.8528120482
  C        45.5328795254       27.7169227625        9.4315259911
  C        44.8264280941       28.7071213444        8.6786588425
  C        35.1453058574       26.6257125973        8.7305638617
  C        35.1285672724       26.6080571848       11.5404131673
  C        18.1492968495        3.2472707422       13.7018349106
  C        17.4301730779        4.3438734296       12.9925068387
  C        16.4145333776        4.0521993622       12.0695292846
  C        15.7659047284        5.0825191530       11.3939312224
  C        16.1205017961        6.4279117520       11.6159081350
  C        17.1121846514        6.7117050816       12.5727541857
  C        17.7601802810        5.6830973384       13.2527161848
  C        15.4895508862        7.5232944459       10.8432905202
  C        15.4945009398        7.5059928788        9.4221296428
  C        16.1907409382        6.5038996565        8.6754749969
  H        10.6721580838       12.4656529046       11.8997611964
  H        11.6939234880       10.5507608794       10.6577394626
  H        15.3917474084       11.1687470485       12.7657670761
  H        14.3517842088       13.0715971743       14.0111364355
  H        13.3749400131       11.6300182099        9.1952245974
  H        50.3227206882       22.7480762039       11.9813252399
  H        49.3193872363       24.6224057586       10.6752226689
  H        45.6422726605       24.1610622743       12.8588107523
  H        46.6634261441       22.2902716679       14.1671577901
  H        47.6295530042       23.5755452654        9.2408552982
  H        14.8722567170        8.5884379890       12.6030413105
  H        50.2869874623       22.7027530659        4.0655974807
  H        49.2688102814       24.5755756494        5.3655754851
  H        45.6104767241       24.1093023439        3.1507238778
  H        46.6528560853       22.2540519909        1.8364998944
  H        47.6074308135       23.5516378937        6.8017052258
  H        40.6541605826       17.1655829220        3.4302543096
  H        48.6872164179       14.0949729148       15.7949411107
  H        10.6800568242       12.4664440709        4.0974985269
  H        11.6868236029       10.5235974530        5.3008742051
  H        15.3915656031       11.1560545195        3.2103358756
  H        14.3646248960       13.0854569955        1.9954677662
  H        13.3736184147       11.6201153123        6.7572801598
  H        47.9301831160       14.2186496878        1.7160031678
  H        47.7801923336       14.3743242125       14.4903867807
  H        49.0845185025       18.5527118799        2.8727490474
  H        10.4163217140       14.1342764509        0.0038109397
  H        24.4829479297        3.0239140180       11.9098593680
  H        25.6282437052        4.8796495207       10.6831499247
  H        23.2556802839        7.7528587434       12.8316249365
  H        22.1290806706        5.8873582556       14.0601618235
  H        23.8243970744        5.7916963955        9.2516847913
  H        36.3814963807       32.1882477827       11.9577350908
  H        35.2609780636       30.3621041020       10.6755592576
  H        37.5192362313       27.4407091629       12.8819146764
  H        38.6200050549       29.2794767406       14.1724880865
  H        37.0315292305       29.4496520912        9.2618102147
  H        25.7320261039        8.6112068935       12.6449289274
  H        36.4511081025       32.2351433653        4.1157586814
  H        35.3423276873       30.4134285710        5.4077651223
  H        37.5312343119       27.4842956057        3.1412234152
  H        38.6147122530       29.3175540717        1.8365939259
  H        37.0492538256       29.4649322451        6.8237904681
  H        46.1089087563       26.5876344251        3.3906632260
  H        44.6710945508       35.1160775338       15.8052889087
  H        24.4480247161        3.0354820847        4.0859510463
  H        25.5911778315        4.8698494110        5.3319642303
  H        23.1898145268        7.7677904496        3.2506519929
  H        22.0580361858        5.9214158720        2.0046627986
  H        23.8116216697        5.7932184476        6.8133514096
  H        44.9555475192       34.3897824767        1.6993654263
  H        44.9006214329       34.2057357435       14.4834562078
  H        40.6642064039       33.2094188123        2.8582142489
  H        23.1546793375        1.9565005305        0.0090031119
  H        25.8283873563       19.6408605392       11.8892183297
  H        23.6577572921       19.6814849323       10.6559179318
  H        22.3488462169       16.2306589904       12.8625847433
  H        24.5247042741       16.2020601481       14.0892894383
  H        23.7252944383       17.6355780722        9.2383955378
  H        35.1549770855       15.4468504546       11.9764925590
  H        37.2847369965       15.3957692298       10.6802004186
  H        38.6893756678       18.8187934234       12.8736973244
  H        36.5530997427       18.8496268623       14.1775643434
  H        37.2285569436       17.3711660753        9.2439548537
  H        20.3632911734       17.9829830928       12.6653536693
  H        35.2772020733       15.3768414662        3.9622928212
  H        37.4062530655       15.3417696570        5.2782846150
  H        38.6608356689       18.9573348915        3.3181271593
  H        36.5141032960       18.9910591083        2.0254952674
  H        37.2470943361       17.3839148684        6.7990220891
  H        35.1545388823       26.6678355253        3.3991766929
  H        28.5022670428       21.0789815209       15.8814555505
  H        25.7635553293       19.6147902651        4.1996338460
  H        23.5838565265       19.6668451155        5.4044285335
  H        22.2882364927       16.1954738114        3.2189993623
  H        24.4735112936       16.1628262775        2.0010563607
  H        23.7018096536       17.6250293150        6.8019601825
  H        28.9696585701       21.7332936146        1.7660800166
  H        29.1962439012       21.7207977875       14.5684285494
  H        32.1513111924       18.5906807088        2.9726936446
  H        27.4116718453       19.0783681844        0.0885899435
  H        14.8480118015       19.6485599363        4.1461893362
  H        17.0098664923       19.6962261767        5.3897918019
  H        18.3042232513       16.1905796016        3.2608485210
  H        16.1384289133       16.1586385497        2.0164559013
  H        16.9218544772       17.7057961793        6.8568914527
  H        46.0886340977       15.4532385166        4.0814928524
  H        43.9653218411       15.4135556057        5.3934885278
  H        42.5683464382       18.8501161265        3.2150974632
  H        44.6911161093       18.8636458210        1.8925723113
  H        44.0318489766       17.3556476419        6.8500095113
  H        20.2904355350       17.9275869678        3.4283852809
  H        46.0430749242       15.3873158908       12.0318722870
  H        43.9108985432       15.3274971700       10.7360962798
  H        42.5191675874       18.7865757642       12.8804765382
  H        44.6582919319       18.8332237087       14.1760174553
  H        44.0145115303       17.3207848537        9.2893978163
  H        46.1991340404       26.6821162723       12.6182038981
  H        52.7412914552       21.0626832405        0.1998186574
  H        14.8812946509       19.6777019231       11.8943680204
  H        17.0825824890       19.7538065545       10.7164912983
  H        18.3397470013       16.2362705168       12.8475030482
  H        16.1407346347       16.1843045888       14.0355700718
  H        16.9443422397       17.7224596820        9.2937896191
  H        52.3226725775       21.6733327735       14.2890681361
  H        52.0133813290       21.7021716818        1.5007673326
  H        49.0680094324       18.6077654086       13.1988462597
  H        13.2478426828       19.0160781228       15.9724287284
  H        29.9834596924       12.4448871132        4.1860273191
  H        28.9389979180       10.5106257679        5.3703320572
  H        25.2627639500       11.2000204888        3.2470922128
  H        26.3270671767       13.1232818492        2.0535820528
  H        27.2803251265       11.6265529286        6.8047700932
  H        31.0184919040       22.7438770464        4.0547960189
  H        32.0323248638       24.6232765690        5.3448240216
  H        35.7068276026       24.1256712185        3.1643177532
  H        34.6718693685       22.2503271716        1.8682406221
  H        33.7114809884       23.5594416038        6.7669215049
  H        25.7350858590        8.5946368577        3.4082257648
  H        30.9395821504       22.7373968865       11.9520105242
  H        31.9742183340       24.5874777739       10.6347455318
  H        35.6237367209       24.1158953438       12.8616186750
  H        34.5736629993       22.2637779207       14.1745444558
  H        33.6837741185       23.5512437177        9.2081961473
  H        40.5961417180       17.0790052360       12.6581542534
  H        32.5170311196       14.1500807400        0.2549162044
  H        29.9750028338       12.3715044198       12.0958232841
  H        28.9432818898       10.4961145171       10.8083380740
  H        25.1672110093       11.2770446209       12.7118615307
  H        26.2066218402       13.1653734659       13.9816725875
  H        27.2786304918       11.6341471408        9.2419623001
  H        33.3050685931       14.2077246970       14.4389141362
  H        33.4114503086       14.4095500695        1.6025695209
  H        32.0781009623       18.5176700743       13.1296354100
  H        30.2349762741       14.1967359248        0.0851369998
  H        16.1198821646        2.9601307649        4.1360158153
  H        14.9524535448        4.8161992117        5.3282615836
  H        17.3604619995        7.6841137598        3.2134030213
  H        18.5108905626        5.8176400445        2.0137607286
  H        16.7500760394        5.7368864752        6.7764401119
  H        44.8282169159       32.1401583726        3.9823076900
  H        45.9371932542       30.3411173888        5.3117086822
  H        43.6815693543       27.3782619317        3.1579397675
  H        42.5989266455       29.1902916690        1.8155029776
  H        44.2297031287       29.4363325942        6.7742257865
  H        14.8473261900        8.5429607799        3.3679174671
  H        44.8998126832       32.2334889789       11.9267992377
  H        46.0245068857       30.4123581961       10.6472234525
  H        43.7632723721       27.4836044669       12.8405261152
  H        42.6456174525       29.3173816642       14.1196156813
  H        44.2678675321       29.4699207636        9.2133084320
  H        35.0847970710       26.6233532861       12.6277888174
  H        36.6102352696       35.1383430726        0.1890216549
  H        16.1433922457        3.0125399064       11.9003961232
  H        14.9732820412        4.8552807048       10.6843003801
  H        17.3956290479        7.7472655459       12.7492118460
  H        18.5432523680        5.8939128021       13.9771568902
  H        16.7623462901        5.7537972507        9.2139202823
  H        36.2845633091       34.4829701556       14.2735329031
  H        36.3953794649       34.2059203559        1.5015526004
  H        40.5790709264       33.2020457535       13.1478936662
  H        17.5097018190        1.9522242310       15.9737428760
  H        28.7018225827       19.0772704298        4.2205443975
  H        29.6145442909       19.6360200205       11.4878583232
  H        32.1547541804       16.0113537514       11.6021217771
  H        30.9791109844       15.3893087367        4.3105089709
  H        28.1518712779       17.4133850599        6.9270989500
  H        29.3639006364       15.2969522220        6.6593903269
  H        31.1505485422       20.0436746194        9.3099906592
  H        32.8401279778       17.5092686204        9.0204112935
  H        27.7041204026       17.3512087202       10.1824430733
  H        18.9039785995        0.8510696838        4.3683884329
  H        40.5258107160       35.2296824573       11.9455355717
  H        42.3249140887       34.4197033634       11.5833103256
  H        22.0967876691        0.6989717493        4.3491673292
  H        11.5969226630       18.7129049377        4.3876802342
  H        52.2650400950       18.4313324868       11.6720634925
  H        49.2552958550       16.4770905753       11.5794246099
  H        10.1505694070       15.7982089731        4.2976821156
  H        50.8503089197       17.6924363325       11.9491150801
  H        10.0463111768       17.3945679405        4.0570337884
  H        20.2934408418        0.0045619842        4.0400715380
  H        39.1816600724       36.1244644652       11.6829300470
 Ni        30.8207996203       17.7931804934       10.5781000010
 Ni        31.1135074688       16.4995285919        7.7448629791
 Ni        30.0091202472       18.6495503413        7.6589100150
 Ni        29.9285141537       17.2811279988        5.0846051030
  O        10.6500161636       14.3650710095       13.4807436687
  O        12.6132396967       14.6574656104       14.5787643231
  O        49.1480891324       16.8458604225       15.9846355956
  O        50.3503301054       20.9357645736       13.6429144110
  O        48.3485993505       20.5933175861       14.6607995714
  O        11.0519731541       17.0537267495       14.4956649535
  O        50.3210305780       20.8816821557        2.4119942086
  O        48.3467688398       20.5868010528        1.3322513359
  O        49.5438331850       18.2483991932        2.0733646330