     583
 i =      351, E =     -4830.6426004156
  C        11.8584917030       14.0534528161       13.7365086413
  C        12.4558861839       12.8903427975       13.0184064335
  C        11.7045049028       12.1721362186       12.0759407104
  C        12.2808192912       11.1099204948       11.3835459772
  C        13.6210702970       10.7393274014       11.6119650339
  C        14.3537706378       11.4420083732       12.5864646838
  C        13.7809651986       12.5069791346       13.2780287089
  C        14.2606933513        9.6487767434       10.8384924105
  C        14.2562002193        9.6568398760        9.4167798747
  C        13.7430976161       10.7589604485        8.6628215128
  C        49.1267095757       21.2332542771       13.8745189618
  C        48.5501601411       22.4010939634       13.1475283849
  C        49.3002326558       23.0684131428       12.1665101758
  C        48.7333454582       24.1075749977       11.4333541331
  C        47.4028029723       24.5093348108       11.6619513905
  C        46.6718401872       23.8604796245       12.6754942603
  C        47.2342188187       22.8155512128       13.4048362138
  C        46.7726424536       25.5870436089       10.8646486169
  C        46.7619622022       25.5575409943        9.4428778640
  C        47.2619499060       24.4424920742        8.6993507942
  C        14.8601985929        8.5705257660        8.7035056124
  C        14.8913382019        8.5967095166       11.5151183304
  C        49.1130149446       21.2035674256        2.1504387216
  C        48.5277903136       22.3648292944        2.8774486407
  C        49.2671146438       23.0256948095        3.8702492132
  C        48.6907998914       24.0602375880        4.6016823104
  C        47.3602878147       24.4568976588        4.3636435774
  C        46.6397916745       23.8118690435        3.3402397175
  C        47.2133139162       22.7759691463        2.6084449990
  C        46.7219400172       25.5318651570        5.1547158564
  C        46.7340914716       25.5283484288        6.5764125553
  C        47.2496463805       24.4291952444        7.3327984240
  C        40.6213530257       17.1019210382        7.3115612219
  C        40.6326563833       17.1078531222        4.5018061432
  C        11.8827722302       14.0864047215        2.2904993003
  C        12.4719146356       12.9103806272        2.9944883720
  C        11.7146456186       12.1778263336        3.9213232697
  C        12.2811196418       11.0953271436        4.5897701471
  C        13.6196351653       10.7208469819        4.3573274282
  C        14.3572077458       11.4355708344        3.3955499635
  C        13.7919034244       12.5167790157        2.7228354907
  C        14.2533091686        9.6242166999        5.1278361828
  C        14.2522876006        9.6444103604        6.5496794405
  C        13.7425142893       10.7533922866        7.2967725101
  C        22.5119911113        3.2449186499       13.7468245130
  C        23.2268201233        4.3505034172       13.0450371761
  C        24.2247624223        4.0696813708       12.0999698278
  C        24.8532764784        5.1081614013       11.4170923202
  C        24.5000437038        6.4508551686       11.6583654269
  C        23.5293830207        6.7232525349       12.6397810454
  C        22.8964602611        5.6864491796       13.3212805018
  C        25.1097779976        7.5561771375       10.8824607599
  C        25.0881989398        7.5477082187        9.4604481021
  C        24.3852303952        6.5494926594        8.7136721180
  C        38.3030338123       31.9290813681       13.8435050373
  C        37.5760447615       30.8387936349       13.1340941284
  C        36.6205019871       31.1394834869       12.1513472739
  C        36.0072402585       30.1167884882       11.4330808675
  C        36.3344282902       28.7683370338       11.6762306768
  C        37.2597188420       28.4754293238       12.6958602122
  C        37.8774433392       29.4965705282       13.4126035065
  C        35.7376388890       27.6733067304       10.8797008249
  C        35.7738319271       27.6846033797        9.4583267511
  C        36.4756621355       28.6888126101        8.7197670203
  C        25.7177305653        8.6143277944        8.7404803173
  C        25.7060661932        8.6320400943       11.5526665694
  C        38.3273553241       31.9605045343        2.1616058699
  C        37.6048156753       30.8866785628        2.9017560111
  C        36.6799433603       31.1934373267        3.9118936671
  C        36.0705141650       30.1737442476        4.6407429165
  C        36.3706407697       28.8208235336        4.3835730936
  C        37.2717490768       28.5242879015        3.3423125507
  C        37.8837608727       29.5403150395        2.6149403607
  C        35.7672210752       27.7191413453        5.1690755315
  C        35.7895442030       27.7076040623        6.5911773751
  C        36.4826988869       28.6998642756        7.3530239486
  C        46.1361143578       26.6209748753        7.2865763880
  C        46.0876381898       26.5800381178        4.4786844226
  C        22.4626895730        3.2559301871        2.2622027600
  C        23.1617489199        4.3638229489        2.9833280374
  C        24.1669019998        4.0750960256        3.9201138028
  C        24.8003249161        5.1032675457        4.6143805943
  C        24.4490458639        6.4502244897        4.3945327015
  C        23.4668007712        6.7323121550        3.4262670212
  C        22.8287965450        5.7042740854        2.7324827183
  C        25.0846516057        7.5464988707        5.1683441058
  C        25.0759288836        7.5417025926        6.5911663601
  C        24.3772653184        6.5479973546        7.3470063209
  C        26.6261717402       17.8613656829       13.7782295506
  C        25.3201772783       17.9060864997       13.0474978638
  C        25.0299001952       18.9461925787       12.1471595054
  C        23.8187530922       18.9607408757       11.4542353666
  C        22.8586053712       17.9473602378       11.6486343431
  C        23.1451082078       16.9299148481       12.5782742905
  C        24.3591992238       16.9043464513       13.2626763419
  C        21.5825566180       17.9376078227       10.8875295913
  C        21.5835915364       17.9317975759        9.4656631339
  C        22.7907249783       17.8307286861        8.7038244098
  C        34.4177052564       17.2239854514       13.8740305557
  C        35.7129669124       17.1655378552       13.1373737983
  C        35.9148211451       16.2037745127       12.1350451271
  C        37.1022497586       16.1831383477       11.4092463879
  C        38.1191865335       17.1244923326       11.6628305450
  C        37.9197295077       18.0657382009       12.6908602900
  C        36.7310316515       18.0902014485       13.4164552025
  C        39.3748762061       17.1301664629       10.8785905673
  C        39.3685868449       17.1395770196        9.4565311243
  C        38.1611757574       17.2653016536        8.6997544812
  C        20.3353765179       17.9432556720        8.7597271714
  C        20.3598210481       17.9290461364       11.5735524159
  C        34.4398268461       17.2374788221        2.1950955143
  C        35.7409798634       17.1372475164        2.9158442041
  C        35.9448604825       16.1637383347        3.9051781044
  C        37.1362792937       16.1355272934        4.6260171586
  C        38.1522912207       17.0792280493        4.3772866772
  C        37.9543368310       18.0251418689        3.3539675833
  C        36.7623317765       18.0590743717        2.6369180807
  C        39.4023663429       17.0981944994        5.1691548117
  C        39.3827163328       17.1224769366        6.5903382021
  C        38.1674836182       17.2546314563        7.3333975280
  C        35.1701388252       26.6226466718        7.2963539379
  C        35.1689119146       26.6519375633        4.4880370608
  C        26.5675137328       17.8265789348        2.3283355548
  C        25.2530625882       17.8774726964        3.0320900403
  C        24.9745851699       18.9084822684        3.9421131208
  C        23.7567846527       18.9372010708        4.6158823454
  C        22.7890979061       17.9360756489        4.4015878847
  C        23.0606479609       16.9296361852        3.4574131993
  C        24.2792445430       16.8983810222        2.7822507743
  C        21.5266729539       17.9208682825        5.1771858875
  C        21.5540100840       17.9211890522        6.5984206942
  C        22.7760260992       17.8250438576        7.3374753015
  C        14.0455809288       17.8284345663        2.2942967416
  C        15.3494950339       17.8849636606        3.0213107972
  C        15.6056595208       18.8894185552        3.9675727283
  C        16.8143839915       18.9111886029        4.6608973874
  C        17.8008631586       17.9314110049        4.4294470834
  C        17.5490600164       16.9502347353        3.4520330204
  C        16.3396346473       16.9238997368        2.7605128698
  C        19.0709887203       17.9182567389        5.1966513316
  C        19.0723932462       17.9176988373        6.6189257186
  C        17.8668862763       17.8130736826        7.3817876587
  C        46.8028171880       17.2162504311        2.1617856657
  C        45.5097339912       17.1469138330        2.9017850063
  C        45.3041228189       16.1639617981        3.8823925763
  C        44.1200970992       16.1378587766        4.6145558497
  C        43.1112157065       17.0945020241        4.3885264372
  C        43.3133337967       18.0560035570        3.3798796680
  C        44.4982472370       18.0860900619        2.6485493477
  C        41.8581317679       17.1013248059        5.1782259374
  C        41.8667346121       17.1087099811        6.6003807436
  C        43.0769005797       17.2061507845        7.3569091893
  C        20.3201854022       17.9369451901        7.3251552956
  C        20.2941293777       17.9001896436        4.5124650226
  C        46.7840972777       17.2327862371       13.8809037068
  C        45.4824604343       17.1299734698       13.1607665210
  C        45.2636125850       16.1318386491       12.1988820072
  C        44.0763557333       16.1058313566       11.4708568492
  C        43.0772477778       17.0751966009       11.6863312081
  C        43.2872146315       18.0441996516       12.6855003175
  C        44.4753334977       18.0762841448       13.4091025609
  C        41.8297848877       17.0966430434       10.8898320589
  C        41.8523556982       17.1055361714        9.4682856868
  C        43.0701943071       17.2014934537        8.7238241365
  C        46.1539307302       26.6374045793        8.7211202819
  C        46.1624067752       26.6560203041       11.5307868199
  C        14.0461914731       17.8308252857       13.7029417706
  C        15.3685792832       17.9028239879       13.0116425956
  C        15.6467449575       18.9201936206       12.0865702561
  C        16.8768661150       18.9559154051       11.4330645727
  C        17.8574903259       17.9732872786       11.6780297866
  C        17.5858422389       16.9839490699       12.6405698602
  C        16.3577704040       16.9480510308       13.2978685817
  C        19.1256479895       17.9500004732       10.9087564891
  C        19.1013219930       17.9324233937        9.4869565000
  C        17.8808005556       17.8196055126        8.7476832246
  C        28.8134375948       14.0848567661        2.3662893638
  C        28.2100048580       12.9102580860        3.0602972775
  C        28.9413724143       12.1703131611        4.0011615615
  C        28.3474530141       11.0964509146        4.6606629725
  C        27.0092448710       10.7369953401        4.4012718544
  C        26.2998473364       11.4572737174        3.4233293123
  C        26.8904865008       12.5323668765        2.7643041067
  C        26.3435337187        9.6561265227        5.1653672073
  C        26.3316242486        9.6821786470        6.5864921648
  C        26.8405859109       10.7927149556        7.3316261763
  C        32.1772070645       21.2310492878        2.1624775582
  C        32.7659743323       22.3935073434        2.8836294285
  C        32.0563205829       23.0019088416        3.9302941287
  C        32.6302107106       24.0472492591        4.6473313452
  C        33.9288282681       24.5032921856        4.3497285265
  C        34.6193586254       23.9070697862        3.2760401447
  C        34.0482127605       22.8618710029        2.5547508156
  C        34.5673069898       25.5734929622        5.1478254516
  C        34.5830783698       25.5348363941        6.5702844115
  C        34.1005277140       24.4093579193        7.3108238292
  C        25.7162845526        8.6074124176        7.3056221429
  C        25.7038806720        8.6066214659        4.4923941838
  C        32.1061733029       21.2243839950       13.8752949929
  C        32.6983599008       22.3733704809       13.1323071583
  C        31.9759067363       23.0203793277       12.1177552902
  C        32.5632578393       24.0459935412       11.3806438712
  C        33.8856091496       24.4563975198       11.6417137847
  C        34.5894562247       23.8236444389       12.6844615332
  C        34.0082847028       22.7910713123       13.4151345933
  C        34.5321622286       25.5343641846       10.8585060303
  C        34.5608679183       25.5173328878        9.4368904344
  C        34.0863502635       24.4025117825        8.6773030495
  C        40.6138249256       17.1056132382        8.7462831130
  C        40.5995073130       17.1253924441       11.5565412266
  C        28.7486684913       14.0606217928       13.8279284192
  C        28.1395231828       12.9151437716       13.0844749011
  C        28.8787042873       12.2196473301       12.1132752796
  C        28.2973304375       11.1676734329       11.4082653932
  C        26.9634491295       10.7823084768       11.6497097912
  C        26.2410327499       11.4666781486       12.6463349380
  C        26.8179194926       12.5202660925       13.3516146486
  C        26.3240684841        9.6916250864       10.8750377336
  C        26.3234452145        9.7013755844        9.4530036731
  C        26.8345239665       10.8032659016        8.6974308576
  C        18.1354281241        3.1806213829        2.3221793471
  C        17.4059136050        4.2779916862        3.0208095322
  C        16.3900401170        3.9995321150        3.9480868665
  C        15.7421779552        5.0394496021        4.6116260557
  C        16.0941755362        6.3831525209        4.3721601466
  C        17.0836805963        6.6527903871        3.4085681559
  C        17.7328834658        5.6155081540        2.7435042051
  C        15.4698064347        7.4908746407        5.1352033123
  C        15.4852933757        7.4904099563        6.5569227631
  C        16.1867470536        6.4967244629        7.3100959593
  C        42.9458395068       31.8594174635        2.0780064989
  C        43.6461440784       30.7717689451        2.8220572405
  C        44.5925363041       31.0930147685        3.8073195262
  C        45.1982104237       30.0874499521        4.5549846714
  C        44.8708716052       28.7344959492        4.3408641286
  C        43.9440124593       28.4201974253        3.3286093761
  C        43.3352197414       29.4253762257        2.5805773808
  C        45.4886592952       27.6552398550        5.1440047101
  C        45.4932193112       27.6810081164        6.5656911482
  C        44.8062346626       28.6891250575        7.3122991141
  C        14.8563877903        8.5629650930        7.2692630949
  C        14.8743654258        8.5625342669        4.4565961595
  C        42.9463177293       31.9613893712       13.8038898731
  C        43.6914540353       30.8852837135       13.0902158845
  C        44.6568535626       31.1911954202       12.1187184871
  C        45.2784465415       30.1716364441       11.4010019358
  C        44.9539128212       28.8213796487       11.6378992520
  C        44.0193903092       28.5236656440       12.6476736056
  C        43.3910546462       29.5404199145       13.3598252853
  C        45.5632322923       27.7240523407       10.8527064577
  C        45.5338168560       27.7174803272        9.4314035151
  C        44.8275462533       28.7077652753        8.6784798114
  C        35.1607309997       26.6123379400        8.7312966963
  C        35.1330554791       26.5986054583       11.5414913276
  C        18.1486365651        3.2467469217       13.7016804034
  C        17.4298324016        4.3437350256       12.9924066937
  C        16.4146344962        4.0523635461       12.0688938443
  C        15.7662310013        5.0829142956       11.3934014312
  C        16.1208324353        6.4281521040       11.6160408201
  C        17.1121246550        6.7116482428       12.5733513142
  C        17.7598733612        5.6828096127       13.2531849256
  C        15.4903361345        7.5238597537       10.8435519053
  C        15.4963889766        7.5073926248        9.4224025680
  C        16.1930045329        6.5055835395        8.6757054627
  H        10.6726098511       12.4667678273       11.8983669333
  H        11.6946600931       10.5519550780       10.6565009381
  H        15.3904147949       11.1665158961       12.7690388812
  H        14.3500586266       13.0694033419       14.0143542290
  H        13.3759438980       11.6310526677        9.1960792961
  H        50.3229212552       22.7483722184       11.9817046535
  H        49.3198168939       24.6228341393       10.6757638386
  H        45.6423518390       24.1612668580       12.8586708034
  H        46.6630616705       22.2904306075       14.1668985696
  H        47.6303606555       23.5760264522        9.2409738775
  H        14.8713420323        8.5876661608       12.6034190194
  H        50.2872139963       22.7030010554        4.0650888521
  H        49.2692083035       24.5758161741        5.3650861031
  H        45.6103064176       24.1089333841        3.1513394902
  H        46.6522763584       22.2537703324        1.8370665144
  H        47.6082783435       23.5519972243        6.8019396582
  H        40.6368846170       17.0682191032        3.4141809402
  H        48.6868849133       14.0949335464       15.7948834602
  H        10.6813895715       12.4673609079        4.0992315949
  H        11.6894177812       10.5253948149        5.3029137551
  H        15.3922883646       11.1568794830        3.2088618861
  H        14.3639451983       13.0854510447        1.9935337812
  H        13.3755307756       11.6219445107        6.7581482504
  H        47.9301947506       14.2176977269        1.7159929739
  H        47.7797455615       14.3726452808       14.4898656097
  H        49.0824413135       18.5521921554        2.8719382344
  H        10.4156575763       14.1344036892        0.0037427360
  H        24.4861153731        3.0308489476       11.9108426320
  H        25.6274631690        4.8886288534       10.6850328781
  H        23.2477542893        7.7563177199       12.8329528492
  H        22.1254298643        5.8884841217       14.0608369106
  H        23.8205320599        5.7950458712        9.2536194544
  H        36.3833967864       32.1819779719       11.9525185353
  H        35.2659680651       30.3530254407       10.6728467059
  H        37.5193926246       27.4369525599       12.8906672881
  H        38.6177398597       29.2781925244       14.1785436879
  H        37.0386444449       29.4411367307        9.2644508323
  H        25.7360658034        8.6173500503       12.6407052493
  H        36.4596383060       32.2372808072        4.1238035038
  H        35.3486922133       30.4181319526        5.4169355552
  H        37.5152130000       27.4841648094        3.1358247273
  H        38.6022889040       29.3147849334        1.8307211109
  H        37.0520667246       29.4605025774        6.8266088304
  H        46.1085178780       26.5872574570        3.3906396511
  H        44.6679940730       35.1159468672       15.8088694159
  H        24.4424740224        3.0360533838        4.0858903807
  H        25.5830751131        4.8716283633        5.3336013485
  H        23.1835336640        7.7675739324        3.2473480935
  H        22.0547708017        5.9196848633        1.9994313189
  H        23.8058132789        5.7928608922        6.8150287613
  H        44.9530892425       34.3898353222        1.6999301364
  H        44.9009079589       34.2065411736       14.4854535212
  H        40.6645947076       33.2080824029        2.8578704592
  H        23.1507383342        1.9572909426        0.0100136998
  H        25.7602979169       19.7422835912       12.0120716693
  H        23.5996960540       19.7699932211       10.7606078572
  H        22.4154799590       16.1378204229       12.7345768945
  H        24.5908059842       16.1069323610       13.9651495773
  H        23.7362570825       17.7235236638        9.2281736266
  H        35.1255308626       15.4839422593       11.9320768679
  H        37.2570643545       15.4289200030       10.6408443479
  H        38.6958762975       18.8014793415       12.8912857203
  H        36.5616275147       18.8314630431       14.1940148099
  H        37.2237003335       17.4013059020        9.2310179643
  H        20.3686981421       17.9581899731       12.6617823726
  H        35.1525122345       15.4473638000        4.1095646439
  H        37.2915510741       15.3785074802        5.3916043748
  H        38.7312182802       18.7608657234        3.1566280690
  H        36.5887091903       18.8096508383        1.8697124664
  H        37.2348587112       17.3810930241        6.7910797521
  H        35.1239271083       26.6868440154        3.4011701821
  H        28.5169595332       21.0820257364       15.9660281516
  H        25.7231381030       19.6808918422        4.1035296932
  H        23.5401650160       19.7396566153        5.3178117389
  H        22.3208045154       16.1501403059        3.2873493227
  H        24.5063676026       16.1098211407        2.0687706614
  H        23.7088068354       17.7148525599        6.7921395232
  H        28.9916996560       21.7202405007        1.7806239921
  H        29.1411700328       21.7547774388       14.6058693829
  H        32.0925197180       18.5191496767        3.0043593697
  H        27.4174366436       19.0921209860        0.0961939694
  H        14.8471528781       19.6487876436        4.1441322664
  H        17.0096279637       19.6966494368        5.3878701469
  H        18.3001968884       16.1855273245        3.2650084047
  H        16.1333467154       16.1535316724        2.0212758260
  H        16.9242421242       17.6940494633        6.8554273450
  H        46.0895800479       15.4343224013        4.0646976372
  H        43.9623161389       15.3685768990        5.3673168478
  H        42.5424441102       18.8025651852        3.2003799176
  H        44.6701340468       18.8433340222        1.8871477337
  H        44.0180118241       17.3156788616        6.8256295421
  H        20.2863980086       17.9234367316        3.4242040668
  H        46.0393045637       15.3898288762       12.0236772433
  H        43.9101960454       15.3300808057       10.7265318328
  H        42.5219210329       18.7978821822       12.8589589994
  H        44.6569752427       18.8433017367       14.1579681920
  H        44.0062654333       17.3063253235        9.2647291188
  H        46.1988206610       26.6824312615       12.6182509302
  H        52.7409646748       21.0626809255        0.1998311151
  H        14.8891373597       19.6772704982       11.8961688962
  H        17.0905626000       19.7484094628       10.7190141208
  H        18.3328050345       16.2177365167       12.8378513647
  H        16.1337156457       16.1714077084       14.0251203878
  H        16.9487590519       17.7057780260        9.2930359468
  H        52.3222720776       21.6730778873       14.2891126225
  H        52.0132858508       21.7021282104        1.5009395859
  H        49.0669801685       18.6079528811       13.1989988251
  H        13.2470297019       19.0168415992       15.9720173914
  H        29.9729933038       12.4512924301        4.2019482372
  H        28.9165330561       10.5228384682        5.3891361506
  H        25.2657592814       11.1899514998        3.2156993064
  H        26.3395662610       13.1101832088        2.0262997853
  H        27.2106546443       11.6587258363        6.7911126424
  H        31.0758330763       22.6203751089        4.2038025215
  H        32.0716996928       24.5161467522        5.4540969019
  H        35.6259856966       24.2460778881        3.0403302697
  H        34.5886160936       22.3775482621        1.7447765931
  H        33.7593928660       23.5323062054        6.7684941310
  H        25.7328301913        8.5875694587        3.4043528315
  H        30.9568691050       22.6998022719       11.9131289706
  H        31.9974678599       24.5459857731       10.5975314029
  H        35.6128473786       24.1293936939       12.8918624819
  H        34.5582745176       22.2796278293       14.2015924492
  H        33.7342614885       23.5207218536        9.2052310427
  H        40.5940325816       17.0902046087       12.6443254912
  H        32.5124805278       14.1520287670        0.2633364388
  H        29.9096143487       12.5150720269       11.9296870983
  H        28.8786701555       10.6257860326       10.6654414985
  H        25.2085964932       11.1820225259       12.8388788087
  H        26.2580530204       13.0626520610       14.1099943275
  H        27.1992039125       11.6785734302        9.2269707475
  H        33.3036195372       14.2156674720       14.4395787517
  H        33.4087201344       14.4069288723        1.6046209322
  H        32.1101454817       18.5041788272       13.1487082041
  H        30.2348627900       14.1959059261        0.0782540663
  H        16.1179166812        2.9629936077        4.1342689940
  H        14.9525531536        4.8199088674        5.3270531690
  H        17.3660493413        7.6857029279        3.2155787382
  H        18.5149415174        5.8180934899        2.0156572868
  H        16.7529520555        5.7391445093        6.7765538557
  H        44.8294463066       32.1400424999        3.9809439298
  H        45.9386808928       30.3410827826        5.3103751901
  H        43.6802777893       27.3782512592        3.1593470440
  H        42.5976500622       29.1900905436        1.8168158645
  H        44.2307640398       29.4367894652        6.7739708390
  H        14.8502866695        8.5454673034        3.3683857184
  H        44.9009417066       32.2338552373       11.9278624525
  H        46.0259342187       30.4128336031       10.6483328643
  H        43.7615435906       27.4840035928       12.8384133963
  H        42.6436865287       29.3175897593       14.1174109831
  H        44.2689460530       29.4705627339        9.2131000388
  H        35.0824749161       26.6167498560       12.6285430597
  H        36.6048398507       35.1336898413        0.1859378959
  H        16.1436031984        3.0127417785       11.8992866824
  H        14.9738669088        4.8558884052       10.6834101166
  H        17.3953969695        7.7471698243       12.7502833372
  H        18.5425990119        5.8932136207       13.9781305539
  H        16.7641185391        5.7551230508        9.2141839753
  H        36.2781306380       34.4825410788       14.2681746984
  H        36.3798559627       34.2095610280        1.5055850472
  H        40.5793840054       33.2018237924       13.1489293429
  H        17.4707311243        1.9463732158       15.9690634491
  H        28.6985588219       18.9411945297        4.3712023144
  H        28.9229580401       18.6198110860       11.7484086799
  H        31.7275862065       15.7937187684       11.4861570376
  H        31.4122707329       15.7243826587        4.5715286766
  H        28.5190695479       17.3375222907        7.1084100236
  H        29.8535792396       15.2703012185        6.5710489828
  H        30.5247109497       20.0004899791       10.1800191393
  H        32.8872618261       17.4559675028        9.4772774725
  H        26.5102382834       17.6831594972       10.7544978633
  H        18.8529953105        0.8687765603        4.3404634128
  H        40.5276867240       35.2292468474       11.9470916690
  H        42.3229772967       34.4178051697       11.5861806679
  H        22.0880368833        0.6923593343        4.3563642929
  H        11.5968923729       18.7132031235        4.3875384631
  H        52.2648516711       18.4312221635       11.6720078154
  H        49.2557254209       16.4770463604       11.5791275260
  H        10.1501674378       15.7981256906        4.2978768806
  H        50.8500608214       17.6922627950       11.9493264138
  H        10.0459789331       17.3944815605        4.0571325962
  H        20.2141256334        0.0021832896        4.0472626897
  H        39.1833075796       36.1242919702       11.6811448826
 Ni        30.9887530892       17.8442937401       10.8287524670
 Ni        31.3281744291       16.4216553363        8.0017050838
 Ni        30.0120112346       18.7499701213        8.2404488690
 Ni        30.0594607033       17.3535818628        5.3269513657
  O        10.6498263474       14.3651631843       13.4807548266
  O        12.6131592009       14.6575728163       14.5787619168
  O        49.1478402292       16.8460641713       15.9846368508
  O        50.3503030473       20.9355965871       13.6430287921
  O        48.3485815985       20.5932471769       14.6608357409
  O        11.0513759187       17.0540089279       14.4954378870
  O        50.3209722553       20.8815755562        2.4118369684
  O        48.3467681911       20.5866533815        1.3321645181
  O        49.5435419321       18.2484776150        2.0733352278