     583
 i =      179, E =     -4830.6203561909
  C        11.8582373484       14.0535317809       13.7364667480
  C        12.4556436059       12.8903105203       13.0183536271
  C        11.7042196387       12.1721174069       12.0759351069
  C        12.2804969211       11.1098493114       11.3835585288
  C        13.6207239178       10.7392344750       11.6120032365
  C        14.3534529442       11.4418385959       12.5865333570
  C        13.7806517456       12.5068233093       13.2780840291
  C        14.2604402031        9.6487546571       10.8385231240
  C        14.2560355664        9.6568431881        9.4168083274
  C        13.7426331225       10.7588182750        8.6628359523
  C        49.1264791792       21.2333212815       13.8746178712
  C        48.5497416380       22.4010333737       13.1474205407
  C        49.2999724420       23.0687934838       12.1668530235
  C        48.7329864903       24.1078682293       11.4336469692
  C        47.4022224486       24.5090380607       11.6618539731
  C        46.6709836302       23.8595816377       12.6747731839
  C        47.2334631222       22.8147059895       13.4041365822
  C        46.7721012033       25.5868181292       10.8645994353
  C        46.7613760282       25.5573386951        9.4428398631
  C        47.2611963017       24.4421724865        8.6993771169
  C        14.8603392431        8.5707062739        8.7035289003
  C        14.8912465908        8.5967750292       11.5151386746
  C        49.1128451301       21.2034008453        2.1504914028
  C        48.5274549216       22.3645068491        2.8777930244
  C        49.2669608347       23.0259207998        3.8700563110
  C        48.6905626591       24.0604372740        4.6014773400
  C        47.3598318736       24.4565145222        4.3638103761
  C        46.6390366540       23.8107963091        3.3410878818
  C        47.2126398702       22.7748740953        2.6093702920
  C        46.7215204330       25.5316003082        5.1547824379
  C        46.7335507766       25.5281191661        6.5764683186
  C        47.2489189167       24.4288619627        7.3328256970
  C        40.6230411874       17.1291040197        7.3109842469
  C        40.6384941020       17.1326899731        4.5014554035
  C        11.8826374656       14.0864277850        2.2904701853
  C        12.4718051461       12.9102773134        2.9944203848
  C        11.7144721395       12.1776779741        3.9211432171
  C        12.2809420598       11.0951796897        4.5896266072
  C        13.6194965704       10.7208193999        4.3572983719
  C        14.3571221257       11.4355401758        3.3955677157
  C        13.7917969278       12.5167152992        2.7228161367
  C        14.2532802372        9.6242856494        5.1278480069
  C        14.2522303465        9.6444537998        6.5496960412
  C        13.7420838299       10.7532689854        7.2967862720
  C        22.5126420388        3.2443469564       13.7484762786
  C        23.2293566027        4.3493954527       13.0502580021
  C        24.2263716060        4.0685156468       12.1043433157
  C        24.8553164510        5.1075013291       11.4231429939
  C        24.5031151828        6.4496384778       11.6679414704
  C        23.5345696193        6.7220738867       12.6511544545
  C        22.9008607298        5.6848615894       13.3306343183
  C        25.1093737995        7.5556430853       10.8917182162
  C        25.0760554310        7.5502148001        9.4703629631
  C        24.3694169355        6.5525794206        8.7262828107
  C        38.3031359256       31.9298332268       13.8439558458
  C        37.5748957527       30.8400257799       13.1342521151
  C        36.6173368041       31.1427800033       12.1542667094
  C        36.0021872538       30.1214906647       11.4357565293
  C        36.3297857532       28.7727756593       11.6762337021
  C        37.2574740193       28.4775276848       12.6928011782
  C        37.8769831583       29.4974833158       13.4098574532
  C        35.7292416959       27.6801660704       10.8794024963
  C        35.7615914141       27.6941394123        9.4582545280
  C        36.4685228993       28.6957489672        8.7210220468
  C        25.6981516285        8.6197151981        8.7490496196
  C        25.7120088821        8.6282147695       11.5609130954
  C        38.3288829554       31.9620591557        2.1612571471
  C        37.6079464085       30.8885299639        2.9029593046
  C        36.6811641919       31.1964290105        3.9106286518
  C        36.0725127118       30.1772260625        4.6403438434
  C        36.3762995779       28.8248461867        4.3857261240
  C        37.2804285111       28.5269808060        3.3478165625
  C        37.8913482696       29.5426331726        2.6194805840
  C        35.7699411830       27.7250462955        5.1699786231
  C        35.7824822346       27.7169910828        6.5918864859
  C        36.4780963700       28.7070023957        7.3545277318
  C        46.1357653021       26.6208837019        7.2865708982
  C        46.0874693566       26.5798556009        4.4786818952
  C        22.4595075959        3.2556485125        2.2633517362
  C        23.1505003587        4.3648069369        2.9882142391
  C        24.1504317015        4.0796469918        3.9315097668
  C        24.7756124434        5.1104320900        4.6289364567
  C        24.4210426824        6.4559015217        4.4052432643
  C        23.4439711727        6.7342903679        3.4307226906
  C        22.8139818846        5.7037513848        2.7340263262
  C        25.0511063499        7.5546014681        5.1787962426
  C        25.0468658357        7.5487832041        6.6016125004
  C        24.3538040824        6.5528163479        7.3596859336
  C        26.6134928489       17.8555643392       13.7853096202
  C        25.3098913810       17.8888887673       13.0480516301
  C        25.0140290274       18.9316464334       12.1520000312
  C        23.8047731276       18.9408646607       11.4557030932
  C        22.8514431283       17.9204560063       11.6446733065
  C        23.1435775451       16.8993195099       12.5686212107
  C        24.3567505848       16.8777990341       13.2548068645
  C        21.5760445489       17.9108373644       10.8833808202
  C        21.5788473987       17.9092145977        9.4618415442
  C        22.7866203653       17.8079340749        8.7013163717
  C        34.4208687989       17.2228591796       13.8765794177
  C        35.7168776015       17.1642994632       13.1430285153
  C        35.9122389736       16.2144871731       12.1282189711
  C        37.0984231060       16.1967409194       11.4006865459
  C        38.1198332251       17.1305291090       11.6636569381
  C        37.9271113877       18.0589220625       12.7049556671
  C        36.7400708550       18.0799317083       13.4329886522
  C        39.3739958020       17.1423482763       10.8773628334
  C        39.3679747093       17.1579823438        9.4548967768
  C        38.1609589596       17.2789074600        8.6964921632
  C        20.3316717302       17.9254145515        8.7548007824
  C        20.3532360587       17.9034779380       11.5686821557
  C        34.4510321341       17.2354512715        2.1853659328
  C        35.7551714393       17.1330471877        2.8993617229
  C        35.9597947690       16.1627606593        3.8921988053
  C        37.1490390830       16.1478877462        4.6175173859
  C        38.1606495734       17.0946885533        4.3690699857
  C        37.9638139444       18.0339983037        3.3384690083
  C        36.7738999767       18.0586627338        2.6180304632
  C        39.4070966164       17.1216999958        5.1662263447
  C        39.3852455009       17.1453264941        6.5878512187
  C        38.1685565395       17.2687418082        7.3298953012
  C        35.1525135453       26.6375674508        7.2960778989
  C        35.1782451840       26.6552808593        4.4871985818
  C        26.5711493615       17.8246287141        2.3296712806
  C        25.2553394822       17.8750063648        3.0324854962
  C        24.9817206844       18.8964626956        3.9543509369
  C        23.7631666775       18.9251877605        4.6264781428
  C        22.7900322743       17.9320192985        4.3995929287
  C        23.0569531792       16.9350552330        3.4440885204
  C        24.2761899518       16.9046255639        2.7701256786
  C        21.5271864759       17.9148425619        5.1737999817
  C        21.5528985064       17.9081531247        6.5949784435
  C        22.7737949863       17.8060235846        7.3350643707
  C        14.0452640970       17.8288910749        2.2930074957
  C        15.3503316161       17.8863171775        3.0179879807
  C        15.6074375249       18.8910076067        3.9635508175
  C        16.8167963152       18.9123940405        4.6557364796
  C        17.8022481950       17.9320562904        4.4230951649
  C        17.5499751412       16.9512458131        3.4456266681
  C        16.3398571775       16.9252307939        2.7555356787
  C        19.0716777063       17.9160161436        5.1908336714
  C        19.0713286270       17.9099321585        6.6129587875
  C        17.8646732557       17.8053957820        7.3740906779
  C        46.8037128306       17.2175043375        2.1627758063
  C        45.5125808504       17.1532252105        2.9041086643
  C        45.3085814175       16.1800757863        3.8947390018
  C        44.1251374435       16.1611305679        4.6277066831
  C        43.1157162739       17.1149723510        4.3919330889
  C        43.3163918028       18.0660583805        3.3732059107
  C        44.5006958908       18.0895009803        2.6415089999
  C        41.8625722216       17.1277788263        5.1799282544
  C        41.8693825359       17.1388322260        6.6017255135
  C        43.0784124455       17.2417259061        7.3591325039
  C        20.3183242972       17.9237870851        7.3203908496
  C        20.2952728560       17.8992644838        4.5078190633
  C        46.7837992485       17.2331941271       13.8802865112
  C        45.4825091601       17.1328791745       13.1603680768
  C        45.2649574754       16.1428452420       12.1897216453
  C        44.0775472368       16.1215555187       11.4618688789
  C        43.0763706411       17.0869752140       11.6863111060
  C        43.2848609850       18.0467701580       12.6947175788
  C        44.4733570287       18.0748761495       13.4176097702
  C        41.8291595192       17.1132154458       10.8898565592
  C        41.8522885031       17.1306434885        9.4685316248
  C        43.0704653727       17.2347713015        8.7259302307
  C        46.1535371846       26.6373212765        8.7211071044
  C        46.1620888008       26.6558715281       11.5307659500
  C        14.0445391917       17.8286836831       13.7019428230
  C        15.3654885513       17.8955022595       13.0074501286
  C        15.6459272856       18.9121894837       12.0825564883
  C        16.8752583521       18.9433785703       11.4274603023
  C        17.8519286492       17.9566580764       11.6711052810
  C        17.5777106786       16.9671486318       12.6325472435
  C        16.3505359425       16.9359557574       13.2914306525
  C        19.1199553868       17.9300717489       10.9025569786
  C        19.0969755316       17.9159316371        9.4807955327
  C        17.8769133849       17.8082394030        8.7400755483
  C        28.8042436824       14.0859399934        2.3931525595
  C        28.1887956440       12.9150051516        3.0811557651
  C        28.9155415426       12.1654415952        4.0183272190
  C        28.3138138028       11.0930143175        4.6718927773
  C        26.9730128826       10.7454493564        4.4106102439
  C        26.2684267575       11.4743327160        3.4357873771
  C        26.8670349856       12.5480474345        2.7817203216
  C        26.3040763004        9.6664329497        5.1729511665
  C        26.2966076354        9.6922823811        6.5938994460
  C        26.8050313092       10.8038449106        7.3379946832
  C        32.1807332412       21.2423676391        2.1516314909
  C        32.7737172541       22.4089507001        2.8678487929
  C        32.0309291903       23.0784978093        3.8522491001
  C        32.6028897895       24.1164177913        4.5806848400
  C        33.9339043582       24.5119516199        4.3462292630
  C        34.6591550012       23.8608235339        3.3305186399
  C        34.0895237419       22.8176270814        2.6035037202
  C        34.5648546397       25.5849209607        5.1471731754
  C        34.5595223564       25.5539752649        6.5688417836
  C        34.0523143416       24.4380442870        7.3071924543
  C        25.6875410864        8.6153572701        7.3144426886
  C        25.6648580676        8.6166778389        4.5009636396
  C        32.1048810251       21.2318551580       13.8806128709
  C        32.6978079721       22.3815959788       13.1367284520
  C        31.9628045462       23.0420924941       12.1403405467
  C        32.5446398067       24.0692156079       11.4012603201
  C        33.8746206584       24.4660689853       11.6418368147
  C        34.5924195463       23.8190592279       12.6657815506
  C        34.0156757845       22.7856324235       13.3993246159
  C        34.5158990445       25.5458195196       10.8567839143
  C        34.5333899331       25.5349299971        9.4350092104
  C        34.0385396729       24.4294139212        8.6739098182
  C        40.6141399527       17.1301696013        8.7457161272
  C        40.5985340143       17.1361383428       11.5557803048
  C        28.7502565101       14.0682880879       13.8151743816
  C        28.1417801609       12.9201990660       13.0779550319
  C        28.8720416037       12.2377049746       12.0929630899
  C        28.2923732063       11.1807359620       11.3950273423
  C        26.9658448882       10.7809508570       11.6548856458
  C        26.2534500239       11.4511820479       12.6672481516
  C        26.8319149168       12.5073065175       13.3683891833
  C        26.3224533561        9.6914095404       10.8823841891
  C        26.3066148436        9.7058645232        9.4604023924
  C        26.8069124687       10.8119385348        8.7038129047
  C        18.1354986197        3.1808954664        2.3222510605
  C        17.4061894780        4.2782151950        3.0209692694
  C        16.3904834790        3.9998508090        3.9484673541
  C        15.7427510246        5.0398245839        4.6120037138
  C        16.0946571041        6.3835198143        4.3722861080
  C        17.0840608027        6.6530518284        3.4085623039
  C        17.7331649719        5.6157105485        2.7435112893
  C        15.4702633477        7.4912337437        5.1352722186
  C        15.4857988525        7.4907801708        6.5569768663
  C        16.1876323336        6.4973612740        7.3101474913
  C        42.9459636298       31.8594544144        2.0780325040
  C        43.6462977765       30.7718142991        2.8219308189
  C        44.5922107800       31.0930771686        3.8076679369
  C        45.1978893904       30.0874938007        4.5552903458
  C        44.8710445749       28.7344723612        4.3407467887
  C        43.9447991136       28.4201757931        3.3279053068
  C        43.3360336109       29.4253551185        2.5798785485
  C        45.4886246095       27.6551854589        5.1439514120
  C        45.4931131366       27.6810238511        6.5656353789
  C        44.8062839319       28.6892466832        7.3122504079
  C        14.8566038543        8.5631708892        7.2692951313
  C        14.8745730869        8.5627286320        4.4566368507
  C        42.9464742412       31.9614513943       13.8038328237
  C        43.6916410349       30.8853699265       13.0903582332
  C        44.6565780476       31.1912757702       12.1183802904
  C        45.2780941853       30.1716961415       11.4006548648
  C        44.9539821191       28.8213897118       11.6379562250
  C        44.0200989693       28.5237018384       12.6483623107
  C        43.3918650925       29.5404691270       13.3605589004
  C        45.5630830851       27.7240291396       10.8527044388
  C        45.5336625570       27.7175233149        9.4314022116
  C        44.8275674901       28.7078990712        8.6784310516
  C        35.1406338869       26.6267897938        8.7306624245
  C        35.1248509769       26.6049786764       11.5402370150
  C        18.1485930001        3.2469133874       13.7015321931
  C        17.4299310025        4.3438222746       12.9922103767
  C        16.4148197121        4.0525403228       12.0685629476
  C        15.7664752689        5.0831555330       11.3931486547
  C        16.1210368046        6.4283842912       11.6159733932
  C        17.1123243946        6.7117729051       12.5733122473
  C        17.7600532707        5.6828744468       13.2530601052
  C        15.4905247605        7.5241069686       10.8435500847
  C        15.4967471119        7.5077045203        9.4224129094
  C        16.1938112794        6.5061814429        8.6757524112
  H        10.6723227305       12.4667815281       11.8983779538
  H        11.6942691044       10.5518917994       10.6565608033
  H        15.3900558496       11.1662278429       12.7691743091
  H        14.3496265330       13.0691428122       14.0145833928
  H        13.3750771505       11.6307378451        9.1961006559
  H        50.3228277163       22.7490864215       11.9824144405
  H        49.3194997968       24.6234784212       10.6763311017
  H        45.6412081286       24.1597187914       12.8573936062
  H        46.6620929688       22.2889247087       14.1655910477
  H        47.6293655353       23.5756396027        9.2410676084
  H        14.8711435366        8.5877035774       12.6034369775
  H        50.2872515458       22.7036012560        4.0644958155
  H        49.2690448147       24.5764077933        5.3645596269
  H        45.6092726878       24.1072273256        3.1527126746
  H        46.6513771144       22.2519948826        1.8386125320
  H        47.6073151280       23.5515854047        6.8019263458
  H        40.6442702153       17.0900338785        3.4139758824
  H        48.6864871362       14.0948230336       15.7947713043
  H        10.6811721418       12.4671537867        4.0989432841
  H        11.6891592790       10.5252062674        5.3026740689
  H        15.3922118698       11.1568504030        3.2089339213
  H        14.3637605333       13.0853801795        1.9934483922
  H        13.3747291268       11.6216534097        6.7581428850
  H        47.9300768695       14.2168423248        1.7160229714
  H        47.7794798962       14.3711878321       14.4891856856
  H        49.0817509170       18.5518779730        2.8717970217
  H        10.4149855870       14.1343781121        0.0036884663
  H        24.4859187849        3.0296506659       11.9130898573
  H        25.6282658056        4.8893285197       10.6893848429
  H        23.2553900862        7.7553614052       12.8465445238
  H        22.1307569571        5.8858535081       14.0713786353
  H        23.8089581946        5.7964675918        9.2683112885
  H        36.3804211244       32.1857521617       11.9577939138
  H        35.2593535338       30.3590738915       10.6774679699
  H        37.5176381974       27.4386858491       12.8850524206
  H        38.6192632624       29.2779786409       14.1735779328
  H        37.0346534798       29.4447785110        9.2670076864
  H        25.7522469478        8.6091123559       12.6485253254
  H        36.4589676240       32.2404811612        4.1194436788
  H        35.3486224294       30.4213091315        5.4146899882
  H        37.5268252678       27.4869134521        3.1446157130
  H        38.6122203380       29.3176956088        1.8372580593
  H        37.0525601722       29.4642566613        6.8288136819
  H        46.1084470441       26.5869677390        3.3906366013
  H        44.6683537999       35.1161550079       15.8087858074
  H        24.4287051005        3.0416790934        4.0993974309
  H        25.5551598110        4.8825102101        5.3527556383
  H        23.1588069309        7.7685528523        3.2491652380
  H        22.0438653487        5.9155422152        1.9958947113
  H        23.7805425657        5.7975809291        6.8298460121
  H        44.9541570233       34.3906579179        1.7003988367
  H        44.9020433769       34.2068986460       14.4854227445
  H        40.6659273421       33.2088586023        2.8581414601
  H        23.1505446780        1.9576692082        0.0106618843
  H        25.7363380703       19.7366781158       12.0265109471
  H        23.5812465418       19.7518180985       10.7654889157
  H        22.4188682312       16.1015607381       12.7191752753
  H        24.5938908542       16.0778976912       13.9527832266
  H        23.7309811582       17.6983008855        9.2270152720
  H        35.1178431129       15.5037373744       11.9141724888
  H        37.2469037884       15.4520179965       10.6219106302
  H        38.7072328190       18.7881606402       12.9134056788
  H        36.5759319468       18.8117149378       14.2205645074
  H        37.2209966975       17.4065161636        9.2254626868
  H        20.3610987599       17.9299122226       12.6569769281
  H        35.1763801324       15.4436637782        4.1196338762
  H        37.2980571563       15.3967841355        5.3901274468
  H        38.7383584223       18.7717258352        3.1394984580
  H        36.5995474709       18.8050839664        1.8469553958
  H        37.2343646499       17.3831973365        6.7874453339
  H        35.1478304344       26.6825338930        3.3996126842
  H        28.5114178055       21.0881757962       15.9711561644
  H        25.7363892233       19.6604506127        4.1257453512
  H        23.5498917112       19.7206274407        5.3373259550
  H        22.3129497819       16.1617169621        3.2642807381
  H        24.4997558544       16.1233623851        2.0475468437
  H        23.7069044120       17.6955626435        6.7904321764
  H        29.0021598766       21.7217631430        1.7684530447
  H        29.1474041312       21.7524862758       14.6071712541
  H        32.1464581266       18.5708556664        2.9624388519
  H        27.4069246838       19.0822474463        0.1048225539
  H        14.8489501167       19.6502491344        4.1407685556
  H        17.0130219430       19.6974091500        5.3829228139
  H        18.3007968045       16.1863584943        3.2581097101
  H        16.1322018435       16.1550737833        2.0164698616
  H        16.9224274780       17.6901438856        6.8461998077
  H        46.0944233770       15.4525102181        4.0835574158
  H        43.9674587594       15.3995780852        5.3882546696
  H        42.5443808192       18.8095876945        3.1862127451
  H        44.6720361649       18.8387952814        1.8722400510
  H        44.0193939020       17.3567292700        6.8287909472
  H        20.2884548717       17.9273692061        3.4196747265
  H        46.0416058696       15.4034651029       12.0077092125
  H        43.9124958234       15.3524970364       10.7104071464
  H        42.5178701310       18.7969047104       12.8758445831
  H        44.6536536762       18.8354766964       14.1732759908
  H        44.0053806009       17.3431459413        9.2680744329
  H        46.1985592858       26.6821851871       12.6182301737
  H        52.7406829406       21.0624193497        0.1997581048
  H        14.8908105843       19.6721737627       11.8938054796
  H        17.0914714254       19.7354207840       10.7136769374
  H        18.3218004006       16.1976560308       12.8279164569
  H        16.1238071816       16.1598258653       14.0183830489
  H        16.9440583292       17.6951843340        9.2842206137
  H        52.3211952644       21.6726533420       14.2894283248
  H        52.0122668656       21.7013520989        1.5006886325
  H        49.0660651704       18.6075001140       13.1991850973
  H        13.2467122975       19.0168718825       15.9714274302
  H        29.9503745220       12.4345028919        4.2191985272
  H        28.8783999354       10.5107566955        5.3969856856
  H        25.2327152853       11.2145595535        3.2267170070
  H        26.3215072591       13.1324636504        2.0448620588
  H        27.1685492461       11.6716635887        6.7960354914
  H        31.0098790889       22.7576574335        4.0425455524
  H        32.0228363717       24.6345788861        5.3410350651
  H        35.6896406282       24.1566435373        3.1447561163
  H        34.6555901128       22.2883921276        1.8404084521
  H        33.6968950091       23.5678126865        6.7626470338
  H        25.6920833552        8.5973759830        3.4128978832
  H        30.9380041728       22.7294172035       11.9531509317
  H        31.9693208674       24.5821147300       10.6336366762
  H        35.6222322340       24.1143027967       12.8559497249
  H        34.5753052176       22.2625536231       14.1712456061
  H        33.6730579956       23.5525746431        9.2011897041
  H        40.5922943032       17.0936221893       12.6432920698
  H        32.5281162082       14.1497163537        0.2541240360
  H        29.8948835253       12.5488058244       11.8926282781
  H        28.8678591472       10.6467588574       10.6419330130
  H        25.2277384704       11.1542428240       12.8763391033
  H        26.2793588169       13.0381194967       14.1400571049
  H        27.1708364892       11.6864593770        9.2350430612
  H        33.3005481578       14.2145284729       14.4340587399
  H        33.4037481708       14.3501028120        1.6400775083
  H        32.1393123799       18.5706739312       13.1951154882
  H        30.2342324130       14.1893755833        0.0704971280
  H        16.1184300236        2.9633337203        4.1348235530
  H        14.9532622863        4.8204352883        5.3276227124
  H        17.3664286960        7.6859378476        3.2154388600
  H        18.5151970280        5.8182608169        2.0156287706
  H        16.7542622308        5.7400887557        6.7766227842
  H        44.8288431969       32.1401173183        3.9816123383
  H        45.9380451644       30.3411778193        5.3109738449
  H        43.6816889363       27.3781558521        3.1581116939
  H        42.5991230057       29.1900017459        1.8155057430
  H        44.2310101507       29.4370724756        6.7739453720
  H        14.8504600804        8.5456494239        3.3684282224
  H        44.9004073437       32.2339326284       11.9271721904
  H        46.0252586590       30.4129034662       10.6476679539
  H        43.7627819216       27.4839977210       12.8396069117
  H        42.6450937750       29.3176125071       14.1187160087
  H        44.2691436200       29.4708554140        9.2130002149
  H        35.0812815079       26.6181892406       12.6276444680
  H        36.6051534166       35.1339490017        0.1857942473
  H        16.1438133782        3.0129435748       11.8988158613
  H        14.9741929876        4.8562867372       10.6830196114
  H        17.3956807414        7.7472583558       12.7503131953
  H        18.5428722119        5.8932361828       13.9779128626
  H        16.7652897057        5.7560097296        9.2142448817
  H        36.2786886845       34.4823809685       14.2680958769
  H        36.3812027814       34.2090558348        1.5048744515
  H        40.5805299659       33.2026305447       13.1486205445
  H        17.4707101997        1.9471390111       15.9690122196
  H        28.8013629971       18.9765947338        4.3713056343
  H        28.7877338739       18.7960409498       11.8368532896
  H        31.7499690643       15.7917981377       11.5358278390
  H        31.0342384306       15.3903930630        4.3384058224
  H        28.4124540425       17.2814783763        6.8581190578
  H        29.6285596823       15.0743392811        6.7437000740
  H        30.5151565040       20.0899423652       10.1038674801
  H        32.7335854454       17.6634945360        9.2431116791
  H        26.5005913079       17.6834035209       10.8046915981
  H        18.8535435652        0.8689894655        4.3403865356
  H        40.5280259485       35.2288057751       11.9469221964
  H        42.3240044928       34.4186437881       11.5852592241
  H        22.0878482589        0.6917870481        4.3568640002
  H        11.5969835755       18.7131869152        4.3873019639
  H        52.2645347878       18.4307048666       11.6721841814
  H        49.2554380298       16.4768226900       11.5791488775
  H        10.1500665372       15.7980197588        4.2980073443
  H        50.8494119308       17.6921916514       11.9494020696
  H        10.0458625582       17.3942872268        4.0572101149
  H        20.2148435460        0.0021742078        4.0470811140
  H        39.1838240881       36.1245085776       11.6813915824
 Ni        30.9468308313       17.8731067970       10.9083113167
 Ni        31.1562881990       16.3698252052        8.1578490709
 Ni        30.0576760091       18.8200208516        7.9886424405
 Ni        30.2277985400       17.3550142036        5.2510765793
  O        10.6497114805       14.3651748675       13.4806856333
  O        12.6130808355       14.6575263576       14.5787187853
  O        49.1479573469       16.8460915680       15.9846062933
  O        50.3501886586       20.9359706345       13.6431231799
  O        48.3485186217       20.5933427410       14.6608593079
  O        11.0510544863       17.0540719610       14.4952734286
  O        50.3209710555       20.8816886051        2.4118217268
  O        48.3467379743       20.5867529828        1.3321520682
  O        49.5434731631       18.2485134765        2.0734029999