     580
 i =      137, E =     -4813.4020090021
  C        11.8585454079       14.0535215771       13.7364509932
  C        12.4559828914       12.8904663614       13.0182910401
  C        11.7044160116       12.1718359380       12.0763013381
  C        12.2807720194       11.1096272892       11.3839391839
  C        13.6212130353       10.7395103905       11.6119582478
  C        14.3541882249       11.4426974436       12.5858622422
  C        13.7813240096       12.5076621657       13.2773951310
  C        14.2608205452        9.6489226124       10.8385256548
  C        14.2562271750        9.6569063917        9.4168195820
  C        13.7429703175       10.7589703960        8.6628859951
  C        49.1267457787       21.2331855804       13.8745711999
  C        48.5500576475       22.4010671846       13.1474867789
  C        49.3001363587       23.0684700313       12.1665628111
  C        48.7332012125       24.1076061336       11.4333744680
  C        47.4026245139       24.5092043410       11.6619311628
  C        46.6716094528       23.8602075288       12.6753229442
  C        47.2340484984       22.8153003476       13.4046712317
  C        46.7724297982       25.5869291354       10.8646605663
  C        46.7615380973       25.5573686802        9.4428969257
  C        47.2614211958       24.4422548501        8.6993987836
  C        14.8603346407        8.5706580855        8.7035538089
  C        14.8916491025        8.5969791576       11.5151647181
  C        49.1131117872       21.2034277292        2.1504633744
  C        48.5277977000       22.3647416197        2.8776062950
  C        49.2670997192       23.0255982459        3.8703940088
  C        48.6907684402       24.0601470330        4.6018401698
  C        47.3602885053       24.4568058631        4.3637457146
  C        46.6397871750       23.8117208992        3.3404018475
  C        47.2133166318       22.7758016707        2.6086283975
  C        46.7219068659       25.5318132245        5.1547695673
  C        46.7337522454       25.5282044459        6.5764723970
  C        47.2491484648       24.4289633433        7.3328438485
  C        40.6225913849       17.1182998234        7.3129769791
  C        40.6339943169       17.1188835391        4.5034306008
  C        11.8828935451       14.0864980123        2.2905544800
  C        12.4721541105       12.9105855128        2.9946438084
  C        11.7147699907       12.1776503433        3.9210747126
  C        12.2813487970       11.0951993543        4.5895081343
  C        13.6200533894       10.7211905909        4.3574286563
  C        14.3578241700       11.4363991016        3.3961859951
  C        13.7924077849       12.5175549432        2.7234731225
  C        14.2537405042        9.6245387095        5.1279037927
  C        14.2524751644        9.6445696148        6.5497523463
  C        13.7424715337       10.7534552443        7.2968385918
  C        22.5123760268        3.2451870488       13.7470167837
  C        23.2271506274        4.3505662802       13.0463644743
  C        24.2216494902        4.0702476877       12.0974618466
  C        24.8492238181        5.1093705729       11.4148747095
  C        24.4987632344        6.4519783106       11.6605298673
  C        23.5323168644        6.7237376985       12.6462603892
  C        22.8999522675        5.6864035626       13.3272080985
  C        25.1059153714        7.5584062118       10.8845052428
  C        25.0757908532        7.5532247343        9.4627920371
  C        24.3706742536        6.5559269870        8.7168354128
  C        38.3030222366       31.9296309584       13.8438593867
  C        37.5745884923       30.8396496570       13.1341142773
  C        36.6179471371       31.1422643327       12.1531633660
  C        36.0027095225       30.1209142737       11.4346613334
  C        36.3290445415       28.7720527406       11.6761512273
  C        37.2557416590       28.4769913071       12.6937282973
  C        37.8754675400       29.4970099622       13.4106350934
  C        35.7287985903       27.6791140227       10.8791728367
  C        35.7633330385       27.6919692228        9.4579800347
  C        36.4708611372       28.6932146337        8.7207585834
  C        25.7001392318        8.6224828364        8.7425860619
  C        25.7080547910        8.6308806037       11.5546152378
  C        38.3289158855       31.9618929141        2.1612523043
  C        37.6084163093       30.8877590892        2.9028071282
  C        36.6820466352       31.1945950145        3.9111635758
  C        36.0742785628       30.1746562118        4.6406911155
  C        36.3784907547       28.8225089690        4.3852028763
  C        37.2820246675       28.5257291379        3.3464629615
  C        37.8920501380       29.5421001504        2.6183548305
  C        35.7733606865       27.7219045767        5.1694365382
  C        35.7863939832       27.7136303450        6.5913873396
  C        36.4814040661       28.7039586427        7.3542355783
  C        46.1358167254       26.6208739480        7.2866131086
  C        46.0878954499       26.5801368248        4.4787102642
  C        22.4612747907        3.2563356392        2.2627125798
  C        23.1557567716        4.3655269268        2.9847999322
  C        24.1580039749        4.0802245979        3.9257312468
  C        24.7864825281        5.1108940174        4.6205884622
  C        24.4331905362        6.4568328494        4.3972124312
  C        23.4539755518        6.7353485304        3.4248271448
  C        22.8207821537        5.7049235019        2.7305009914
  C        25.0645256759        7.5553460643        5.1708743745
  C        25.0555374713        7.5506929416        6.5936995915
  C        24.3593039375        6.5556889737        7.3501540702
  C        26.6234326851       17.8602534137       13.7773135173
  C        25.3213849576       17.8988087014       13.0432495562
  C        25.0652729236       18.8868336726       12.0784306732
  C        23.8510785544       18.9040247797       11.3945015877
  C        22.8569867590       17.9372762932       11.6512862767
  C        23.1122822165       16.9692014119       12.6412579979
  C        24.3275311703       16.9458132016       13.3235986750
  C        21.5816812278       17.9229382450       10.8904519048
  C        21.5810918125       17.9000514381        9.4680174846
  C        22.7855831020       17.7694908610        8.7068830379
  C        34.4199763690       17.2246012294       13.8753437393
  C        35.7169507152       17.1663732694       13.1416879594
  C        35.9166207694       16.2104207824       12.1337683466
  C        37.1036237663       16.1919135613       11.4074552543
  C        38.1217569891       17.1304096750       11.6657996118
  C        37.9248921690       18.0654792309       12.6999414740
  C        36.7365399515       18.0874930765       13.4261381186
  C        39.3765802802       17.1393200421       10.8804619199
  C        39.3700964298       17.1542499096        9.4583866025
  C        38.1627211879       17.2838638992        8.7020976855
  C        20.3339445008       17.9216575463        8.7606442080
  C        20.3572790620       17.9277311110       11.5742350495
  C        34.4453130970       17.2369675668        2.1866565175
  C        35.7473741806       17.1406178825        2.9085305261
  C        35.9464418813       16.1757485997        3.9072139413
  C        37.1356238733       16.1518691205        4.6320421883
  C        38.1544850395       17.0910364758        4.3775222544
  C        37.9613660123       18.0276088921        3.3446015357
  C        36.7713905218       18.0573419602        2.6236854376
  C        39.4035792660       17.1126044281        5.1706529583
  C        39.3838965562       17.1399747326        6.5918743789
  C        38.1692744723       17.2745632571        7.3356048273
  C        35.1569758804       26.6339250973        7.2956184044
  C        35.1817976873       26.6519577121        4.4866836207
  C        26.5898526944       17.7929320253        2.3647197100
  C        25.2721339006       17.8468048790        3.0627659199
  C        25.0044305211       18.8546292559        4.0010960964
  C        23.7797188761       18.8888265957        4.6614155546
  C        22.7949097487       17.9128742158        4.4094325359
  C        23.0566904397       16.9303736121        3.4375396147
  C        24.2809291838       16.8962772813        2.7730294103
  C        21.5292893074       17.8972718355        5.1789125239
  C        21.5537885819       17.8847549711        6.6002923159
  C        22.7723509524       17.7614996790        7.3408208608
  C        14.0465960256       17.8289120874        2.2937556825
  C        15.3514631168       17.8859514641        3.0190495640
  C        15.6085673912       18.8890341709        3.9666224509
  C        16.8177244820       18.9095483421        4.6594518548
  C        17.8039777340       17.9297583975        4.4266249597
  C        17.5516676484       16.9509390130        3.4468289622
  C        16.3419823922       16.9258518593        2.7557508577
  C        19.0733587142       17.9111336218        5.1953002385
  C        19.0727297803       17.9065192111        6.6179144119
  C        17.8660408327       17.8101157308        7.3800511793
  C        46.8031899751       17.2166618451        2.1620851267
  C        45.5104189459       17.1492050495        2.9026163099
  C        45.3052147863       16.1702634508        3.8872809403
  C        44.1213689252       16.1471541531        4.6198623628
  C        43.1123004626       17.1027209800        4.3899830377
  C        43.3139786959       18.0598481758        3.3771060649
  C        44.4987094504       18.0871085117        2.6455692413
  C        41.8594319859       17.1130515467        5.1797399528
  C        41.8680063922       17.1236359037        6.6018053006
  C        43.0782151898       17.2220181325        7.3581200409
  C        20.3197462997       17.9133351923        7.3258102601
  C        20.2973207549       17.8902937652        4.5124147028
  C        46.7846521905       17.2329272077       13.8810865378
  C        45.4832520835       17.1312598728       13.1609828403
  C        45.2649845720       16.1361298379       12.1959509428
  C        44.0778542334       16.1123219150       11.4677530757
  C        43.0786126624       17.0806972123       11.6866980055
  C        43.2878961968       18.0463317798       12.6891999034
  C        44.4759637475       18.0764675669       13.4126717331
  C        41.8313334089       17.1048643391       10.8905547181
  C        41.8537674508       17.1183613789        9.4692281157
  C        43.0715355907       17.2164773932        8.7249911995
  C        46.1535839662       26.6372889073        8.7211606151
  C        46.1624240035       26.6560100033       11.5308131424
  C        14.0460919564       17.8311081465       13.7030772859
  C        15.3680748509       17.9035852389       13.0120668978
  C        15.6449619037       18.9196348840       12.0851496128
  C        16.8748020752       18.9552819985       11.4311931141
  C        17.8561127428       17.9738514671       11.6777114417
  C        17.5858846647       16.9862775573       12.6425100706
  C        16.3581978673       16.9503707675       13.3002014894
  C        19.1239787037       17.9471573069       10.9083810114
  C        19.0993615812       17.9237541414        9.4865696301
  C        17.8790160147       17.8176771522        8.7461608560
  C        28.8094954776       14.0819790145        2.3629594222
  C        28.2011482243       12.9102930903        3.0581939749
  C        28.9259981378       12.1735526335        4.0066102822
  C        28.3263482121       11.1041776157        4.6681750326
  C        26.9889318880       10.7454831312        4.4030494724
  C        26.2863205782       11.4623647902        3.4178171668
  C        26.8825223386       12.5333151999        2.7569813916
  C        26.3195501443        9.6670947957        5.1672054512
  C        26.3059251060        9.6942356564        6.5882840207
  C        26.8096868302       10.8071312343        7.3335809983
  C        32.1815501636       21.2384159504        2.1514966267
  C        32.7754581502       22.4045009035        2.8690742667
  C        32.0345126225       23.0733804959        3.8552396333
  C        32.6074301302       24.1113777192        4.5829895379
  C        33.9378123189       24.5078487708        4.3462667815
  C        34.6611863822       23.8574371580        3.3287606178
  C        34.0904148116       22.8143707619        2.6023314593
  C        34.5695237727       25.5809028992        5.1466745940
  C        34.5650429076       25.5497912391        6.5683398469
  C        34.0590380674       24.4334482214        7.3068808731
  C        25.6942976481        8.6175873395        7.3077519110
  C        25.6821752576        8.6160883442        4.4944528932
  C        32.1049386615       21.2273967632       13.8766635463
  C        32.6961117209       22.3775180831       13.1320242239
  C        31.9623488654       23.0368376769       12.1340353365
  C        32.5442902330       24.0653959083       11.3967702162
  C        33.8730069050       24.4646261862       11.6404802644
  C        34.5893315881       23.8187973040       12.6662256884
  C        34.0125247389       22.7842952039       13.3980487505
  C        34.5152037556       25.5446113800       10.8562720929
  C        34.5359061825       25.5323469087        9.4345432174
  C        34.0436125989       24.4255994840        8.6735468582
  C        40.6150994978       17.1207099537        8.7476534662
  C        40.6014425883       17.1312212849       11.5578028311
  C        28.7510514815       14.0688752754       13.8126234134
  C        28.1428229367       12.9209818390       13.0744527039
  C        28.8719891285       12.2386686343       12.0884473084
  C        28.2911445136       11.1822338678       11.3905064825
  C        26.9644265756       10.7828202906       11.6506214764
  C        26.2529430584       11.4535202510       12.6633245695
  C        26.8324503752       12.5089955644       13.3646910353
  C        26.3202487990        9.6939356159       10.8772167343
  C        26.3066643307        9.7089069939        9.4550935020
  C        26.8071524236       10.8157054911        8.6994492619
  C        18.1355063216        3.1808971869        2.3222558019
  C        17.4062712644        4.2782142646        3.0209783527
  C        16.3903632369        3.9999119846        3.9482904325
  C        15.7426628051        5.0399269634        4.6117872607
  C        16.0947968644        6.3836104729        4.3722630934
  C        17.0844263639        6.6530868250        3.4087482981
  C        17.7334953498        5.6157042241        2.7437160487
  C        15.4704261841        7.4913317509        5.1352728446
  C        15.4857202212        7.4907072143        6.5569867039
  C        16.1873474360        6.4971434389        7.3101604304
  C        42.9459387553       31.8595514160        2.0780058612
  C        43.6463402679       30.7718835086        2.8219608053
  C        44.5920645421       31.0932072699        3.8078495775
  C        45.1977856022       30.0876564292        4.5555040524
  C        44.8711770432       28.7346084504        4.3408187093
  C        43.9451392690       28.4202660117        3.3278063403
  C        43.3363138804       29.4254058206        2.5797678078
  C        45.4888029423       27.6553171279        5.1439999419
  C        45.4931106009       27.6810028559        6.5656952007
  C        44.8061202430       28.6891144784        7.3123200642
  C        14.8566193055        8.5631431133        7.2693237762
  C        14.8750353651        8.5630115545        4.4566486526
  C        42.9464572685       31.9615508210       13.8038593377
  C        43.6916694731       30.8854149676       13.0903420678
  C        44.6565573304       31.1913315798       12.1183296816
  C        45.2781060923       30.1717502970       11.4006107458
  C        44.9541081383       28.8214433041       11.6380082013
  C        44.0202929933       28.5237574368       12.6484679921
  C        43.3920131352       29.5405174673       13.3606453934
  C        45.5632137536       27.7240609302       10.8527650885
  C        45.5336306023       27.7174482479        9.4314609628
  C        44.8273992008       28.7077451662        8.6785069987
  C        35.1436911487       26.6239127798        8.7302520708
  C        35.1227926307       26.6045995851       11.5398188331
  C        18.1486698887        3.2469983542       13.7015188858
  C        17.4300786181        4.3438856210       12.9922060924
  C        16.4147293252        4.0526176617       12.0687995690
  C        15.7664145394        5.0832487034       11.3934016985
  C        16.1212004592        6.4284579199       11.6160127786
  C        17.1127626375        6.7118354447       12.5730665867
  C        17.7604647593        5.6829272384       13.2528232177
  C        15.4906587333        7.5241528407       10.8435758373
  C        15.4966438626        7.5076037555        9.4224392343
  C        16.1935295728        6.5059670233        8.6757669587
  H        10.6723833730       12.4661703376       11.8990557573
  H        11.6945318235       10.5513567584       10.6571985820
  H        15.3910670501       11.1677435704       12.7679263664
  H        14.3506311925       13.0705496558       14.0132030629
  H        13.3757660396       11.6310264800        9.1961726101
  H        50.3228651172       22.7484902150       11.9818538083
  H        49.3196859038       24.6229506182       10.6758499918
  H        45.6420656454       24.1608620999       12.8584004589
  H        46.6629297810       22.2899737429       14.1666233364
  H        47.6298036422       23.5758001209        9.2410684156
  H        14.8718864994        8.5881232949       12.6034705317
  H        50.2871924819       22.7028606629        4.0652090071
  H        49.2691823814       24.5757180159        5.3652476214
  H        45.6103053859       24.1087874216        3.1514959711
  H        46.6523367499       22.2534913777        1.8372863657
  H        47.6077730568       23.5517755734        6.8019511219
  H        40.6382142852       17.0753347432        3.4159634134
  H        48.6868814682       14.0949777799       15.7948800460
  H        10.6813765190       12.4668711664        4.0986743364
  H        11.6896007369       10.5249739482        5.3023774853
  H        15.3931246399       11.1582161536        3.2099528868
  H        14.3646020445       13.0866243085        1.9946007245
  H        13.3754927958       11.6220071615        6.7582064358
  H        47.9301674459       14.2180102540        1.7160025629
  H        47.7797925242       14.3728766020       14.4898666004
  H        49.0827422306       18.5520413196        2.8721034234
  H        10.4157282649       14.1343821242        0.0037903849
  H        24.4807974505        3.0314928196       11.9049969972
  H        25.6203820329        4.8906808129       10.6793906538
  H        23.2536661306        7.7569168823       12.8430811134
  H        22.1318401092        5.8879756241       14.0698961739
  H        23.8079488956        5.8004080156        9.2573576335
  H        36.3817585878       32.1852577201       11.9558686245
  H        35.2606708565       30.3587027606       10.6756532024
  H        37.5150047350       27.4381109912       12.8869846467
  H        38.6169874121       29.2773817891       14.1750720757
  H        37.0363557765       29.4426596486        9.2668417295
  H        25.7466798548        8.6117766728       12.6422915680
  H        36.4594485062       32.2384208651        4.1207411732
  H        35.3507408951       30.4180411053        5.4155892125
  H        37.5286982881       27.4859043885        3.1423722925
  H        38.6124990116       29.3179356714        1.8355225760
  H        37.0558787246       29.4612975126        6.8286399627
  H        46.1091319461       26.5874560418        3.3906712019
  H        44.6682886276       35.1162057031       15.8088224595
  H        24.4353569472        3.0420826555        4.0941438123
  H        25.5671410411        4.8823387629        5.3430351519
  H        23.1694501309        7.7697703393        3.2430803848
  H        22.0490639288        5.9175131159        1.9942428649
  H        23.7871845797        5.8005928511        6.8188795399
  H        44.9538621206       34.3904717377        1.7003465879
  H        44.9017093709       34.2068005025       14.4855039241
  H        40.6659426441       33.2090642150        2.8582089328
  H        23.1504706217        1.9580641915        0.0101334465
  H        25.8266787957       19.6389029202       11.8828734336
  H        23.6570134232       19.6773791527       10.6543327202
  H        22.3580313936       16.2124526232       12.8473910281
  H        24.5338023805       16.1868159536       14.0747929189
  H        23.7265542883       17.6430715964        9.2343878301
  H        35.1247150578       15.4952095872       11.9254117229
  H        37.2565099031       15.4425205773       10.6340125328
  H        38.7024125384       18.7986974032       12.9042042012
  H        36.5681958342       18.8244915230       14.2079552227
  H        37.2253640996       17.4202221543        9.2337329275
  H        20.3647907926       17.9683261610       12.6621003142
  H        35.1511176353       15.4632787026        4.1144480003
  H        37.2875302762       15.4010760890        5.4044211497
  H        38.7410432342       18.7589283373        3.1418815016
  H        36.6014872246       18.8000905322        1.8479912321
  H        37.2368737772       17.4025166486        6.7934134772
  H        35.1504367766       26.6797369897        3.3991324182
  H        28.5134232266       21.0799413891       15.9641690521
  H        25.7679506994       19.6042771591        4.1947008367
  H        23.5709639796       19.6745704460        5.3842273118
  H        22.3045585135       16.1699408167        3.2376321195
  H        24.4993239182       16.1262630457        2.0369622100
  H        23.7027114737       17.6289951127        6.7965326188
  H        28.9945339844       21.7181475524        1.7764483715
  H        29.1477774523       21.7534394354       14.6110329171
  H        32.1286459389       18.5392724801        2.9800087284
  H        27.4076152722       19.0778626599        0.0926553642
  H        14.8502771209       19.6482063112        4.1450147379
  H        17.0131472765       19.6938025405        5.3876799764
  H        18.3025825944       16.1864213143        3.2581382573
  H        16.1356290220       16.1567720240        2.0151919864
  H        16.9228365765       17.6975480077        6.8533246987
  H        46.0908216699       15.4414672782        4.0723589782
  H        43.9638079139       15.3810648847        5.3759024387
  H        42.5428188139       18.8053695542        3.1945124569
  H        44.6704598722       18.8411481775        1.8809833398
  H        44.0191650456       17.3323816850        6.8267412647
  H        20.2908482992       17.9217797889        3.4243308886
  H        46.0409916174       15.3949841824       12.0184953679
  H        43.9117771381       15.3392047269       10.7206837298
  H        42.5220568281       18.7988607520       12.8651931660
  H        44.6576107351       18.8409806333       14.1640693632
  H        44.0074935536       17.3214112290        9.2660823623
  H        46.1991092842       26.6824796959       12.6182666963
  H        52.7409552970       21.0625596738        0.1997884511
  H        14.8864775917       19.6755183331       11.8935663960
  H        17.0877162354       19.7465770448       10.7155996048
  H        18.3338880100       16.2213554086       12.8408342426
  H        16.1350476843       16.1749195698       14.0289869550
  H        16.9455963045       17.7108216136        9.2905739643
  H        52.3220639708       21.6730196938       14.2891957827
  H        52.0129056397       21.7017888451        1.5007871752
  H        49.0671158122       18.6077785399       13.1989702085
  H        13.2472795138       19.0165309739       15.9719408076
  H        29.9572435995       12.4530568258        4.2114172960
  H        28.8902337997       10.5327249654        5.4023544676
  H        25.2531027209       11.1955672597        3.2052042681
  H        26.3369187950       13.1083793476        2.0128796058
  H        27.1725376385       11.6758161660        6.7924213614
  H        31.0138711555       22.7522070173        4.0471420240
  H        32.0283740502       24.6292119299        5.3443357733
  H        35.6909931957       24.1541874083        3.1406565353
  H        34.6547107717       22.2862471739        1.8371472438
  H        33.7050246855       23.5628474105        6.7620954242
  H        25.7129698574        8.5957015810        3.4064813149
  H        30.9386751061       22.7223644522       11.9437627690
  H        31.9697591369       24.5774238601       10.6279722004
  H        35.6180802542       24.1159372492       12.8591633916
  H        34.5708285034       22.2623107189       14.1716515722
  H        33.6783279664       23.5489736055        9.2012948216
  H        40.5962525534       17.0913579245       12.6454107668
  H        32.5122737797       14.1555374332        0.2496740675
  H        29.8946531749       12.5498214128       11.8871491098
  H        28.8656919204       10.6486417881       10.6364525605
  H        25.2267536792       11.1581622633       12.8723151120
  H        26.2799598160       13.0405877675       14.1358861276
  H        27.1671513613       11.6915162770        9.2312893141
  H        33.3027572001       14.2262260970       14.4392849491
  H        33.4101959004       14.3976168166        1.6021575788
  H        32.0912670034       18.5331373379       13.1488108906
  H        30.2300593445       14.1966021227        0.0628676569
  H        16.1181299461        2.9634199446        4.1345210553
  H        14.9530509242        4.8205907352        5.3272880584
  H        17.3670730875        7.6859380496        3.2158158344
  H        18.5157202109        5.8182761724        2.0160441511
  H        16.7539570203        5.7398470780        6.7766452810
  H        44.8284915903       32.1402793318        3.9819014452
  H        45.9377973345       30.3414082929        5.3113092801
  H        43.6822416433       27.3782195657        3.1578664030
  H        42.5995360617       29.1900596578        1.8152648483
  H        44.2308156305       29.4369211602        6.7740115906
  H        14.8512457600        8.5461587649        3.3684286005
  H        44.9002959391       32.2340037571       11.9270762608
  H        46.0252303408       30.4129810601       10.6475881056
  H        43.7630981825       27.4840434537       12.8398072860
  H        42.6452851902       29.3177043997       14.1188584167
  H        44.2689399278       29.4706635360        9.2131041086
  H        35.0771434864       26.6188845950       12.6271340850
  H        36.6051904089       35.1339674607        0.1857986934
  H        16.1435578846        3.0130398970       11.8992183823
  H        14.9739804177        4.8564124560       10.6834349363
  H        17.3963984795        7.7472900576       12.7498115413
  H        18.5435174960        5.8933322046       13.9774096678
  H        16.7649739242        5.7557591418        9.2142458488
  H        36.2788632926       34.4822729335       14.2680805596
  H        36.3812800718       34.2090157797        1.5048442342
  H        40.5805217252       33.2028758420       13.1485229414
  H        17.4709050709        1.9472962157       15.9690532282
  H        28.7797824112       18.9223877384        4.3709497907
  H        28.9496305661       18.5289169827       11.7483436811
  H        31.7880079321       15.8271483216       11.4850221266
  H        31.3489371839       15.5114172130        4.5037456504
  H        28.3876625082       17.2036661947        6.9282561511
  H        29.8109003405       15.0497320866        6.6957151445
  H        30.4955072273       20.0539401747       10.0584822315
  H        32.6668722083       17.8564757349        9.2411389921
  H        27.4357903844       16.6529220548       11.1005527251
  H        18.8535476753        0.8690284926        4.3403471145
  H        40.5279689700       35.2288637895       11.9468720675
  H        42.3242457968       34.4188116123       11.5852503580
  H        22.0877470658        0.6917342647        4.3569229320
  H        11.5969928128       18.7129511263        4.3874477271
  H        52.2649501139       18.4309598410       11.6723093208
  H        49.2551932276       16.4769812970       11.5792824491
  H        10.1503254414       15.7980850402        4.2978262600
  H        50.8499452195       17.6923894727       11.9492159503
  H        10.0460675196       17.3944188987        4.0571212313
  H        20.2148089381        0.0021467061        4.0470988724
  H        39.1838268695       36.1246271799       11.6814368342
 Ni        31.0271654841       17.9194392991       10.8272529632
 Ni        31.2391491251       16.4248411395        8.0782474450
 Ni        29.9728461223       18.9147258843        7.8301873435
 Ni        30.2267306455       17.3528474584        5.3291292352
  O        10.6498250082       14.3651515788       13.4807569878
  O        12.6131241821       14.6575520807       14.5787697242
  O        49.1478925785       16.8459876643       15.9846555313
  O        50.3502763180       20.9357528752       13.6430048227
  O        48.3485639612       20.5933006419       14.6608482559
  O        11.0514376213       17.0539141797       14.4954905856
  O        50.3210294855       20.8816552971        2.4118772445
  O        48.3467672934       20.5867407170        1.3321919359
  O        49.5436290351       18.2484323895        2.0733528159