     569
 i =      123, E =     -4760.4083221218
  C        11.8586926660       14.0535615242       13.7364658452
  C        12.4562146053       12.8906505866       13.0181601840
  C        11.7044636879       12.1715837819       12.0766475248
  C        12.2808556976       11.1093805099       11.3843110644
  C        13.6214863821       10.7397036756       11.6119365112
  C        14.3547169766       11.4434236099       12.5852478269
  C        13.7818157710       12.5083996382       13.2767471877
  C        14.2610343486        9.6490493624       10.8385341195
  C        14.2562416767        9.6569206691        9.4168337242
  C        13.7429464853       10.7589926685        8.6629385298
  C        49.1268118943       21.2331512232       13.8746267442
  C        48.5500844591       22.4011219767       13.1475482227
  C        49.3001282917       23.0684192329       12.1665510214
  C        48.7332202490       24.1075703094       11.4333466693
  C        47.4026966002       24.5092521425       11.6619826554
  C        46.6717323072       23.8603935564       12.6754948557
  C        47.2341541337       22.8154728102       13.4048458278
  C        46.7724658691       25.5869584017       10.8647113299
  C        46.7614370101       25.5573447091        9.4429479906
  C        47.2613356499       24.4422362399        8.6994513776
  C        14.8602708222        8.5706388385        8.7035589570
  C        14.8919659957        8.5971822699       11.5151709823
  C        49.1131841564       21.2033641292        2.1504540829
  C        48.5278327340       22.3647561116        2.8776311314
  C        49.2671068911       23.0254572480        3.8705191409
  C        48.6908320826       24.0600387922        4.6019893358
  C        47.3604264076       24.4568508396        4.3637828455
  C        46.6399624270       23.8119488591        3.3402932859
  C        47.2134591407       22.7760044574        2.6085091563
  C        46.7220317939       25.5318599551        5.1548127679
  C        46.7336950736       25.5281892211        6.5765189471
  C        47.2490770350       24.4289486488        7.3328976178
  C        40.6190283989       17.0981761591        7.3078467916
  C        40.6255914322       17.1103008552        4.4979855800
  C        11.8829242588       14.0865940902        2.2906366673
  C        12.4722578755       12.9108265598        2.9948825002
  C        11.7147003715       12.1775072152        3.9208714377
  C        12.2813115808       11.0950472883        4.5892595679
  C        13.6202028211       10.7214701334        4.3575845147
  C        14.3582351675       11.4371810736        3.3969357513
  C        13.7927855725       12.5183461162        2.7242570462
  C        14.2538026944        9.6247002546        5.1279720520
  C        14.2524208500        9.6446050944        6.5498097535
  C        13.7424103373       10.7534832171        7.2968940855
  C        22.5116358949        3.2453502376       13.7459406693
  C        23.2244048741        4.3498752075       13.0424652493
  C        24.2196054228        4.0681765621       12.0946583594
  C        24.8466756330        5.1061047398       11.4099533304
  C        24.4946405670        6.4490139488       11.6518231580
  C        23.5268082128        6.7221303069       12.6359587565
  C        22.8953256924        5.6860285342       13.3194804439
  C        25.1030409371        7.5545228371       10.8757185472
  C        25.0824165179        7.5462132697        9.4536786116
  C        24.3844944804        6.5460721923        8.7048244664
  C        38.3033031367       31.9316024395       13.8446702653
  C        37.5739920529       30.8429386563       13.1348822055
  C        36.6114033788       31.1481523423       12.1607965054
  C        35.9941501091       30.1285904494       11.4421351343
  C        36.3259876635       28.7800112900       11.6764599316
  C        37.2595169507       28.4820302989       12.6865957108
  C        37.8803878571       29.5003602919       13.4045283283
  C        35.7219390021       27.6901317543       10.8796217453
  C        35.7447972661       27.7098931988        9.4584748589
  C        36.4491332273       28.7129833041        8.7207662072
  C        25.7079087300        8.6161195330        8.7352579883
  C        25.6974316044        8.6304990601       11.5475709158
  C        38.3281390855       31.9637131371        2.1604447625
  C        37.6018825048       30.8939807997        2.9023032367
  C        36.6736604322       31.2098233754        3.9061767442
  C        36.0569821549       30.1962426784        4.6365889944
  C        36.3543435377       28.8419870506        4.3857853544
  C        37.2604276593       28.5359991693        3.3520295558
  C        37.8795684657       29.5463004550        2.6230635591
  C        35.7395313007       27.7475586892        5.1705519993
  C        35.7535275925       27.7395455924        6.5923136280
  C        36.4536254335       28.7268827924        7.3543068875
  C        46.1357108351       26.6208398742        7.2866581408
  C        46.0881489670       26.5802601636        4.4787583378
  C        22.4641722375        3.2563769294        2.2614164949
  C        23.1654665760        4.3639838522        2.9794045136
  C        24.1730077685        4.0757431867        3.9139413667
  C        24.8080348042        5.1043896071        4.6058984442
  C        24.4558600355        6.4512670292        4.3867006771
  C        23.4718909941        6.7327857846        3.4200087170
  C        22.8324466477        5.7044428771        2.7281074807
  C        25.0895794116        7.5478212801        5.1616389669
  C        25.0764772837        7.5420483233        6.5843456095
  C        24.3797811994        6.5453582502        7.3381445347
  C        26.6262960183       17.8662542326       13.7686845070
  C        25.3178995034       17.9163073930       13.0475190837
  C        25.0597016917       18.9052385634       12.0851860835
  C        23.8449127321       18.9241284894       11.4022867302
  C        22.8509562854       17.9575650350       11.6592704698
  C        23.1049885144       16.9926882066       12.6523355372
  C        24.3215093337       16.9681519677       13.3326082358
  C        21.5774185202       17.9387455533       10.8954393609
  C        21.5779571757       17.9065225903        9.4730829990
  C        22.7832154010       17.7709051451        8.7143201963
  C        34.4191543282       17.2217563811       13.8717164276
  C        35.7194664401       17.1602860664       13.1421677809
  C        35.9257976693       16.1905489020       12.1484969154
  C        37.1123614560       16.1688910674       11.4213261443
  C        38.1248560532       17.1174686356       11.6650497347
  C        37.9227939463       18.0650806166       12.6866974001
  C        36.7346144764       18.0902401778       13.4137651558
  C        39.3788250114       17.1236007293       10.8775263586
  C        39.3698429270       17.1307686891        9.4553894068
  C        38.1604950151       17.2514164955        8.7009058933
  C        20.3318392349       17.9234952989        8.7635928175
  C        20.3521400881       17.9456739604       11.5769854167
  C        34.4344910644       17.2397285649        2.1873898280
  C        35.7329182812       17.1461056199        2.9161070423
  C        35.9399410987       16.1657143866        3.8978386219
  C        37.1314807143       16.1356995872        4.6187411309
  C        38.1447120512       17.0843402521        4.3776713806
  C        37.9431190631       18.0384081633        3.3627874273
  C        36.7510397234       18.0737560600        2.6455363139
  C        39.3964184113       17.0992684941        5.1675541214
  C        39.3790986572       17.1182934914        6.5888213543
  C        38.1646418316       17.2437394638        7.3344370039
  C        35.1210857624       26.6617708012        7.2965869796
  C        35.1410421086       26.6816944976        4.4878267992
  C        26.5931826294       17.7968950498        2.3629428562
  C        25.2758785300       17.8422916767        3.0650899846
  C        25.0084439675       18.8458963781        4.0078925115
  C        23.7841427688       18.8766177839        4.6696605034
  C        22.7990369197       17.9014075594        4.4151199730
  C        23.0615713319       16.9219284979        3.4403873024
  C        24.2854040169       16.8913292911        2.7744452651
  C        21.5322321680       17.8851149557        5.1833119720
  C        21.5543947917       17.8759957565        6.6049482875
  C        22.7716143720       17.7549687908        7.3482059410
  C        14.0474455087       17.8281829917        2.2943515323
  C        15.3524183128       17.8830131705        3.0196645671
  C        15.6117171847       18.8845767469        3.9683766419
  C        16.8212585247       18.9023712178        4.6607469438
  C        17.8063763362       17.9213376773        4.4271798251
  C        17.5518676151       16.9441857247        3.4461558026
  C        16.3418701531       16.9218245542        2.7553543419
  C        19.0756017005       17.9006885398        5.1966116908
  C        19.0732307777       17.8991225860        6.6193145258
  C        17.8657153017       17.8043213875        7.3804172231
  C        46.8017069186       17.2155084791        2.1603406751
  C        45.5063240441       17.1449335927        2.8972459241
  C        45.2984835669       16.1616798925        3.8770242946
  C        44.1133510294       16.1360270103        4.6075919229
  C        43.1050480474       17.0932759855        4.3810030457
  C        43.3086865885       18.0540103089        3.3718696619
  C        44.4948424989       18.0837388910        2.6422619476
  C        41.8524773845       17.1014114626        5.1720655525
  C        41.8631843549       17.1074835074        6.5943210437
  C        43.0745361686       17.2062871013        7.3487911033
  C        20.3194101833       17.9080935294        7.3287340907
  C        20.3006945708       17.8775526054        4.5154096054
  C        46.7850317896       17.2333382040       13.8799684178
  C        45.4848460924       17.1313623230       13.1569144368
  C        45.2697310656       16.1362529464       12.1910731354
  C        44.0836011434       16.1100099528       11.4612858143
  C        43.0819079171       17.0761023213       11.6791766720
  C        43.2886581356       18.0426211208       12.6814552809
  C        44.4757050976       18.0750112582       13.4067269802
  C        41.8338299614       17.0953838334       10.8838988178
  C        41.8538407118       17.1034062070        9.4623330553
  C        43.0701651531       17.2018056710        8.7156791121
  C        46.1534496373       26.6372504739        8.7212121540
  C        46.1625705250       26.6561029679       11.5308477345
  C        14.0456589292       17.8321816024       13.7037883352
  C        15.3668105950       17.9076961218       13.0136085005
  C        15.6384842088       18.9218052184       12.0830389942
  C        16.8674146736       18.9600923585       11.4280651962
  C        17.8525414591       17.9835690622       11.6780729721
  C        17.5877749678       16.9986905753       12.6470921030
  C        16.3607819929       16.9597297151       13.3053720041
  C        19.1199824236       17.9584428727       10.9092494216
  C        19.0963876042       17.9281524362        9.4877715079
  C        17.8770398498       17.8170989821        8.7464826219
  C        28.8176899106       14.0874699302        2.3634329088
  C        28.2125969718       12.9174991268        3.0628547813
  C        28.9331933573       12.1971372522        4.0264205833
  C        28.3393155070       11.1211755684        4.6822829794
  C        27.0105672322       10.7429540525        4.4010487658
  C        26.3114593439       11.4469387776        3.4039332997
  C        26.9029431735       12.5220034681        2.7458694599
  C        26.3428775501        9.6613771558        5.1623184149
  C        26.3214584146        9.6889271022        6.5834397961
  C        26.8160273599       10.8049929629        7.3301792982
  C        32.1578268362       21.2647611864        2.1466840243
  C        32.7430663076       22.4322403594        2.8702833502
  C        31.9916615699       23.1076307604        3.8436843561
  C        32.5590054279       24.1491894180        4.5719273591
  C        33.8928894132       24.5406308129        4.3472543623
  C        34.6261851075       23.8839737438        3.3413873654
  C        34.0609400350       22.8385686201        2.6146465234
  C        34.5231622411       25.6142063269        5.1478314627
  C        34.5207090958       25.5826430205        6.5690975973
  C        34.0109248507       24.4676006551        7.3066939176
  C        25.7099494513        8.6104362254        7.3005064992
  C        25.7095408983        8.6087387715        4.4876377872
  C        32.1057431059       21.2358593483       13.8784575521
  C        32.6980217191       22.3878250366       13.1378854011
  C        31.9571148634       23.0581370291       12.1520741073
  C        32.5362490924       24.0864062546       11.4127295173
  C        33.8704055405       24.4756893666       11.6427393429
  C        34.5941355756       23.8203184762       12.6571671223
  C        34.0196305012       22.7855082411       13.3909637057
  C        34.5072152329       25.5575304179       10.8573988977
  C        34.5114927228       25.5540604402        9.4356137249
  C        34.0058802905       24.4545220351        8.6732182052
  C        40.6139399319       17.1003727696        8.7426867042
  C        40.6046939728       17.1223594838       11.5528919216
  C        28.7248340321       14.0959272446       13.7740491606
  C        28.1211317162       12.9410678064       13.0458588207
  C        28.8579344309       12.2407401428       12.0782973521
  C        28.2808545221       11.1764362616       11.3899460046
  C        26.9501263547       10.7860418132       11.6425453436
  C        26.2316403601       11.4721102628       12.6395703168
  C        26.8077157327       12.5358466325       13.3312401064
  C        26.3110316081        9.6930082989       10.8713579206
  C        26.3064345428        9.7054654606        9.4494100017
  C        26.8063906964       10.8136366498        8.6957964153
  C        18.1355163960        3.1811773153        2.3222935811
  C        17.4062365662        4.2784211685        3.0208581095
  C        16.3903839220        4.0000868436        3.9482466464
  C        15.7426791728        5.0400811356        4.6117293926
  C        16.0947663882        6.3837882382        4.3721938589
  C        17.0843255654        6.6532941488        3.4086087795
  C        17.7334142542        5.6159340449        2.7435705053
  C        15.4703798276        7.4914550798        5.1352452396
  C        15.4855797987        7.4907072353        6.5569588631
  C        16.1872195780        6.4971410213        7.3101151041
  C        42.9459885969       31.8596077505        2.0780444338
  C        43.6464167117       30.7719445062        2.8219854881
  C        44.5918467319       31.0933051398        3.8081386981
  C        45.1976082768       30.0877785839        4.5557921177
  C        44.8713584471       28.7346854356        4.3408357556
  C        43.9456832140       28.4203106957        3.3274916607
  C        43.3368176884       29.4254328258        2.5794640659
  C        45.4889301375       27.6553833138        5.1440310110
  C        45.4930491121       27.6809865771        6.5657273494
  C        44.8059647274       28.6890300334        7.3123569682
  C        14.8565013348        8.5631246788        7.2693369948
  C        14.8751243151        8.5632419131        4.4566646495
  C        42.9465084274       31.9616396265       13.8039268107
  C        43.6918301825       30.8855006185       13.0905001150
  C        44.6561699946       31.1914338537       12.1179591231
  C        45.2777330675       30.1718596479       11.4002444282
  C        44.9542507367       28.8215086694       11.6381077086
  C        44.0210928255       28.5238217020       12.6491920155
  C        43.3928180123       29.5405782183       13.3613768617
  C        45.5632415040       27.7241089401       10.8528247028
  C        45.5335069195       27.7174175373        9.4315197437
  C        44.8272036377       28.7076459584        8.6785428664
  C        35.1167410891       26.6467795172        8.7310737692
  C        35.1229247410       26.6124371525       11.5408184717
  C        18.1487781787        3.2471585898       13.7014663678
  C        17.4302456418        4.3439949172       12.9921909660
  C        16.4149096392        4.0527546992       12.0687435320
  C        15.7666119773        5.0833959726       11.3933739488
  C        16.1214204939        6.4286152685       11.6159825319
  C        17.1129762280        6.7119738800       12.5730619139
  C        17.7606528409        5.6830456074       13.2528081494
  C        15.4908250738        7.5242795746       10.8435639634
  C        15.4966231691        7.5076069029        9.4224301709
  C        16.1934614065        6.5059641090        8.6757206006
  H        10.6722906031       12.4656158238       11.8997217549
  H        11.6945324189       10.5507844876       10.6578877683
  H        15.3918143483       11.1689808880       12.7668394706
  H        14.3513699266       13.0717724928       14.0119991318
  H        13.3758667397       11.6310821777        9.1962597253
  H        50.3228245467       22.7483441488       11.9818044300
  H        49.3197108245       24.6228224900       10.6757645566
  H        45.6422521255       24.1611972558       12.8586754492
  H        46.6631406619       22.2902203638       14.1669319142
  H        47.6298384730       23.5758407935        9.2411314927
  H        14.8724560270        8.5884966680       12.6034817692
  H        50.2871499847       22.7025712251        4.0653871834
  H        49.2692662103       24.5754838496        5.3654684524
  H        45.6105522986       24.1091986871        3.1512718346
  H        46.6525740803       22.2538185198        1.8370064493
  H        47.6078293388       23.5518200876        6.8019957533
  H        40.6275970754       17.0734787170        3.4102342854
  H        48.6870190797       14.0950883792       15.7949067802
  H        10.6811670812       12.4664370143        4.0981434480
  H        11.6894942463       10.5245249329        5.3018318117
  H        15.3937570273       11.1595009061        3.2111911593
  H        14.3652139891       13.0878528904        1.9959049890
  H        13.3755386950       11.6220818641        6.7582643740
  H        47.9301106941       14.2186955109        1.7159545548
  H        47.7798946228       14.3735882141       14.4901383811
  H        49.0826374783       18.5517860533        2.8721286528
  H        10.4159072114       14.1344015718        0.0038783213
  H        24.4801188373        3.0292230171       11.9052222503
  H        25.6191090650        4.8862706315       10.6761639722
  H        23.2466776062        7.7554897958       12.8297152671
  H        22.1266030105        5.8888138393       14.0612050271
  H        23.8211447069        5.7892460113        9.2428609948
  H        36.3722145048       32.1915390701       11.9695037345
  H        35.2467736263       30.3671660781       10.6886498518
  H        37.5226519694       27.4429062452       12.8731209244
  H        38.6268858102       29.2800477303       14.1638816374
  H        37.0184187072       29.4599672708        9.2662473481
  H        25.7286808663        8.6142535148       12.6355447973
  H        36.4568448616       32.2557090047        4.1112055878
  H        35.3318575113       30.4461008888        5.4079395350
  H        37.5013945963       27.4939420024        3.1525826668
  H        38.6018236530       29.3157687231        1.8436973658
  H        37.0276419323       29.4840135805        6.8279209475
  H        46.1096119317       26.5876697825        3.3907234524
  H        44.6683268548       35.1162398362       15.8088783782
  H        24.4489796728        3.0368472849        4.0799021138
  H        25.5921020295        4.8733324670        5.3238619218
  H        23.1882867943        7.7679925693        3.2413083660
  H        22.0570164295        5.9197616162        1.9965361406
  H        23.8122070752        5.7884391034        6.8046221017
  H        44.9538604976       34.3903621487        1.7002239330
  H        44.9016828127       34.2068135017       14.4855336444
  H        40.6662237257       33.2094219829        2.8583057359
  H        23.1506781395        1.9582209470        0.0094595086
  H        25.8233316905       19.6538746629       11.8873001145
  H        23.6504475004       19.6966758221       10.6613652733
  H        22.3499653539       16.2373768528       12.8608439396
  H        24.5274582102       16.2085762292       14.0831013787
  H        23.7227882118       17.6475325205        9.2450427256
  H        35.1384693432       15.4663773754       11.9535812105
  H        37.2700901329       15.4092111846       10.6588827838
  H        38.6963948880       18.8052539703       12.8806501068
  H        36.5634302718       18.8367356386       14.1859521149
  H        37.2233275750       17.3818102178        9.2342384454
  H        20.3580269275       17.9922382401       12.6646046262
  H        35.1499219507       15.4443951438        4.0938714735
  H        37.2899269333       15.3724932502        5.3775426550
  H        38.7181047622       18.7775775404        3.1708640055
  H        36.5757531721       18.8282175437        1.8825343300
  H        37.2306289367       17.3673984870        6.7938443589
  H        35.1109221536       26.7089101342        3.4002524839
  H        28.4952141929       21.0784452932       15.8793383529
  H        25.7727963078       19.5943173258        4.2037517431
  H        23.5758937923       19.6599102758        5.3952740912
  H        22.3101603008       16.1613172143        3.2383251169
  H        24.5033756097       16.1239569428        2.0355476613
  H        23.7023176542       17.6191374987        6.8054958656
  H        28.9966460159       21.7193180369        1.7567003204
  H        29.1992890885       21.7213555994       14.5740293238
  H        32.0825193532       18.5418051832        2.9197260697
  H        27.4000517113       19.0751003651        0.0834969498
  H        14.8549207269       19.6449292489        4.1481206535
  H        17.0179338739       19.6855379873        5.3897887278
  H        18.3013780067       16.1785985975        3.2561564927
  H        16.1345068610       16.1537613054        2.0140294186
  H        16.9232469837       17.6886508980        6.8530797293
  H        46.0834134515       15.4317596684        4.0605835452
  H        43.9545141945       15.3667891358        5.3601766519
  H        42.5383250229       18.8007682707        3.1908571117
  H        44.6679213841       18.8409369168        1.8810636242
  H        44.0145302360       17.3174748411        6.8158812151
  H        20.2958095502       17.9074694874        3.4272558831
  H        46.0472900382       15.3964739706       12.0147615471
  H        43.9200018061       15.3361224250       10.7144753989
  H        42.5212867198       18.7938008768       12.8565725205
  H        44.6548246223       18.8398400914       14.1584439974
  H        44.0069364012       17.3087702240        9.2549529930
  H        46.1994881884       26.6826525701       12.6182913920
  H        52.7411484609       21.0626069438        0.1997806831
  H        14.8765764902       19.6736967396       11.8895929657
  H        17.0769564365       19.7493312644       10.7092413687
  H        18.3397899447       16.2383877731       12.8478897558
  H        16.1411234624       16.1862371735       14.0372578074
  H        16.9431062019       17.7111225005        9.2901906435
  H        52.3223281956       21.6732161676       14.2892248464
  H        52.0131319737       21.7019369434        1.5007843903
  H        49.0676105670       18.6078820907       13.1988807680
  H        13.2475860666       19.0161578896       15.9724157545
  H        29.9535235476       12.4989720623        4.2516499741
  H        28.9006750667       10.5615914007        5.4273440519
  H        25.2842891813       11.1669952341        3.1794004253
  H        26.3597657306       13.0857009177        1.9914636962
  H        27.1767448316       11.6759960248        6.7910879959
  H        30.9671389049       22.7911573368        4.0238923371
  H        31.9722323687       24.6739504727        5.3227100224
  H        35.6586172979       24.1777586118        3.1634005279
  H        34.6314603406       22.3051577563        1.8579080043
  H        33.6489295041       23.6022311982        6.7588953480
  H        25.7437724657        8.5885717447        3.3997548544
  H        30.9279509491       22.7546888700       11.9749041846
  H        31.9554439046       24.6081123305       10.6551412858
  H        35.6265737685       24.1109757437       12.8402069774
  H        34.5835537136       22.2569597573       14.1560864649
  H        33.6403602369       23.5786939662        9.2016075025
  H        40.6013426403       17.0885161175       12.6407210911
  H        32.5125903393       14.1522808255        0.1662776210
  H        29.8862317716       12.5389898292       11.8868359024
  H        28.8602439157       10.6291465282       10.6495238494
  H        25.2023493174       11.1832916759       12.8423515954
  H        26.2494857526       13.0805339950       14.0890144783
  H        27.1582596384       11.6917151026        9.2291428055
  H        33.2967396762       14.2406161274       14.3584942196
  H        33.4125028789       14.3763457010        1.5266079412
  H        32.0696602502       18.5334692857       13.0765039647
  H        30.2115880556       14.1869086505        0.0147011303
  H        16.1182032510        2.9635950368        4.1345275221
  H        14.9531303880        4.8207473445        5.3272926680
  H        17.3669902743        7.6861415397        3.2156840010
  H        18.5156437223        5.8185994214        2.0159291536
  H        16.7539157359        5.7399126022        6.7766052267
  H        44.8280100762       32.1404034838        3.9823993129
  H        45.9374099615       30.3415833113        5.3117828601
  H        43.6831762498       27.3782139777        3.1572501783
  H        42.6003432682       29.1900602493        1.8146756082
  H        44.2306840564       29.4368500516        6.7740477438
  H        14.8515121092        8.5465794984        3.3684403400
  H        44.8995156016       32.2341326588       11.9263418085
  H        46.0244893960       30.4131415115       10.6468752437
  H        43.7644959813       27.4840587456       12.8410675977
  H        42.6466661970       29.3177587847       14.1201564004
  H        44.2687317347       29.4705704050        9.2131083016
  H        35.0882321410       26.6211902381       12.6285762311
  H        36.6051855472       35.1343608229        0.1855968725
  H        16.1437158758        3.0131924154       11.8991285499
  H        14.9742115753        4.8566048351       10.6833575819
  H        17.3966960568        7.7474139685       12.7497763599
  H        18.5437170463        5.8934979803       13.9773707760
  H        16.7650490321        5.7558340818        9.2141498380
  H        36.2789776568       34.4825428669       14.2681063537
  H        36.3814900589       34.2090736915        1.5044104901
  H        40.5809884932       33.2032808693       13.1483584818
  H        17.4709831275        1.9480055256       15.9690602106
  H        29.1440148154       19.3702337075        4.4584016142
  H        29.4934823234       19.6744314550       11.4965514422
  H        31.3034885361       15.6765743507        4.4813972888
  H        28.2917888132       17.4244531835        6.5368791316
  H        31.0508813497       19.7723339756        9.5205466690
  H        29.6845418080       15.9037531120        9.7450410749
  H        18.8537814225        0.8693201990        4.3403274311
  H        40.5277290668       35.2287447955       11.9468398355
  H        42.3249570876       34.4196498088       11.5849883287
  H        22.0876319773        0.6919851801        4.3569329048
  H        11.5971951084       18.7126362600        4.3873396639
  H        52.2650038178       18.4309213547       11.6725800355
  H        49.2547735056       16.4770317511       11.5795176181
  H        10.1503982996       15.7981808403        4.2977837156
  H        50.8499843446       17.6925321047       11.9491092152
  H        10.0461783947       17.3945659409        4.0570391344
  H        20.2148862429        0.0022833887        4.0470738412
  H        39.1836025394       36.1241022434       11.6810744261
  H        32.0425811977       17.9743476508        8.1364395904
 Ni        30.5217863543       17.7676205848       10.6656240879
 Ni        30.5215512939       16.2550756131        7.5795056931
 Ni        29.8039156338       18.6693997530        7.7425890894
 Ni        29.9270514579       17.2821480524        4.9152028887
  O        10.6499085814       14.3652125090       13.4807370452
  O        12.6131716319       14.6575468280       14.5787936220
  O        49.1477195670       16.8459253760       15.9846798314
  O        50.3502452341       20.9358134224       13.6429823594
  O        48.3485429825       20.5932788357       14.6608619642
  O        11.0514817331       17.0538626386       14.4956182340
  O        50.3209873487       20.8816524807        2.4119429202
  O        48.3467186653       20.5866963692        1.3322196858
  O        49.5436144605       18.2484237750        2.0733383367
  O        12.3590312987       18.6245869944        0.0048721171
  O        48.6931605003       14.1486568995       14.7461712527