     575
 i =      216, E =     -4794.9176867740
  C        11.8589301269       14.0534657323       13.7364761537
  C        12.4564689052       12.8907328534       13.0180977475
  C        11.7047012154       12.1715146403       12.0766975460
  C        12.2811521701       11.1093517471       11.3843872830
  C        13.6218679793       10.7398840461       11.6118926507
  C        14.3551579199       11.4438114250       12.5849994198
  C        13.7822075332       12.5087750441       13.2764680738
  C        14.2613391472        9.6491687205       10.8385376542
  C        14.2565207294        9.6570466541        9.4168512024
  C        13.7434169993       10.7592237542        8.6629810481
  C        49.1270560968       21.2331410829       13.8744767019
  C        48.5504183319       22.4012768880       13.1476024570
  C        49.3002759471       23.0681710722       12.1661858571
  C        48.7334027269       24.1073663641       11.4330091754
  C        47.4030797364       24.5095096518       11.6620496835
  C        46.6724085576       23.8612100811       12.6761520565
  C        47.2347952517       22.8162609632       13.4054752756
  C        46.7727315215       25.5871059863       10.8647482169
  C        46.7615396655       25.5573606325        9.4429870958
  C        47.2614890962       24.4422860080        8.6994699056
  C        14.8603890282        8.5706879013        8.7035750506
  C        14.8922083044        8.5972850473       11.5151870575
  C        49.1133238573       21.2034350008        2.1504137734
  C        48.5279874983       22.3648810008        2.8775067683
  C        49.2670571528       23.0251577354        3.8708323443
  C        48.6907946851       24.0597450424        4.6023074113
  C        47.3605721893       24.4569721344        4.3637444883
  C        46.6403738863       23.8125631594        3.3397379850
  C        47.2138724940       22.7766544700        2.6079204571
  C        46.7220904043       25.5318851878        5.1548068815
  C        46.7337068049       25.5281482674        6.5765149094
  C        47.2491831612       24.4289660529        7.3329172968
  C        40.6299654423       17.1095315835        7.3271640589
  C        40.6555947678       17.1562977823        4.5184024724
  C        11.8832269648       14.0865628359        2.2907099270
  C        12.4726481647       12.9110511251        2.9950805984
  C        11.7150872690       12.1775372259        3.9209273398
  C        12.2817868602       11.0951266305        4.5892754876
  C        13.6207731484       10.7217881617        4.3577102250
  C        14.3588496201       11.4377420814        3.3972856591
  C        13.7933186764       12.5188811098        2.7246423803
  C        14.2543116731        9.6249574922        5.1280343439
  C        14.2527996494        9.6448120803        6.5498594592
  C        13.7429502563       10.7537661905        7.2969399487
  C        22.5125160566        3.2458361735       13.7465718703
  C        23.2269143856        4.3509237109       13.0451663709
  C        24.2226092802        4.0701829223       12.0975341183
  C        24.8501232880        5.1087712628       11.4140610370
  C        24.4983065023        6.4516369919       11.6568587109
  C        23.5305857241        6.7237883570       12.6413922793
  C        22.8985574578        5.6870201508       13.3235726167
  C        25.1051035226        7.5576812475       10.8798569238
  C        25.0798395864        7.5495931363        9.4578552094
  C        24.3800265881        6.5490362668        8.7112703615
  C        38.3021036826       31.9319343772       13.8472483777
  C        37.5704488872       30.8420343197       13.1431937972
  C        36.6073684734       31.1440721921       12.1687795834
  C        35.9911949677       30.1217193774       11.4534411050
  C        36.3252695312       28.7744547893       11.6916039143
  C        37.2570499596       28.4796778454       12.7041094305
  C        37.8768915249       29.5006548774       13.4185994582
  C        35.7288182237       27.6823844407       10.8930503949
  C        35.7614081103       27.7015556391        9.4722586525
  C        36.4659003346       28.7073356191        8.7380875130
  C        25.7021959141        8.6199831044        8.7373399147
  C        25.7011114467        8.6341180720       11.5495593840
  C        38.3309481119       31.9641523489        2.1625529688
  C        37.6119497504       30.8941610562        2.9097974095
  C        36.6863898347       31.2087160767        3.9163930286
  C        36.0764898027       30.1941671138        4.6510490225
  C        36.3783371212       28.8408879002        4.4010359231
  C        37.2828783942       28.5361693441        3.3656570161
  C        37.8952953969       29.5472501629        2.6327457785
  C        35.7671943579       27.7443900022        5.1848379975
  C        35.7808392555       27.7336611163        6.6064499860
  C        36.4756612276       28.7223097759        7.3716718552
  C        46.1355641540       26.6206998746        7.2866729746
  C        46.0882191514       26.5803217644        4.4787781921
  C        22.4624458372        3.2559645665        2.2617265865
  C        23.1597827265        4.3640166915        2.9818073209
  C        24.1647109470        4.0769763830        3.9193701237
  C        24.7960283392        5.1065587607        4.6130228523
  C        24.4424931869        6.4527423741        4.3920241024
  C        23.4609287200        6.7330086678        3.4225678151
  C        22.8251245773        5.7037487660        2.7291144735
  C        25.0743170053        7.5504593309        5.1658624038
  C        25.0646647021        7.5452178724        6.5885267519
  C        24.3708761103        6.5482253461        7.3445630064
  C        26.6178515171       17.8618863247       13.7848455029
  C        25.3098757220       17.9020271615       13.0602679862
  C        25.0590093747       18.8873568040       12.0923367609
  C        23.8473137310       18.9062548224       11.4040805951
  C        22.8505860601       17.9423896174       11.6602219801
  C        23.0987943898       16.9794954142       12.6567579545
  C        24.3121443890       16.9555735656       13.3434939725
  C        21.5780006710       17.9264643027       10.8947297029
  C        21.5774607037       17.9000093509        9.4720598011
  C        22.7821949518       17.7703660097        8.7111721459
  C        34.4237335830       17.2245161280       13.9130716263
  C        35.7136603771       17.1587893814       13.1622881767
  C        35.9262999396       16.1646630214       12.1932348224
  C        37.1063592114       16.1423439130       11.4530874434
  C        38.1091278569       17.1086776544       11.6681105403
  C        37.8996976301       18.0810111112       12.6638250619
  C        36.7158688587       18.1110637468       13.3975703002
  C        39.3673221223       17.1064427711       10.8868168661
  C        39.3664826535       17.1180208059        9.4657209419
  C        38.1611947895       17.2376656611        8.7045768384
  C        20.3306914627       17.9195907093        8.7636335643
  C        20.3529087726       17.9332927225       11.5767289022
  C        34.4709431599       17.2468281412        2.1890548346
  C        35.7757056369       17.1700702635        2.9097287619
  C        35.9952834592       16.1745795879        3.8731120764
  C        37.1824765357       16.1509863896        4.5991380882
  C        38.1776340705       17.1231086991        4.3813569154
  C        37.9652183651       18.0939808954        3.3854361911
  C        36.7759031699       18.1217136490        2.6617789892
  C        39.4229811760       17.1373385994        5.1793040079
  C        39.3951951893       17.1363146046        6.6001369740
  C        38.1742232011       17.2454090319        7.3380688511
  C        35.1516442489       26.6521868162        7.3077003793
  C        35.1694752710       26.6801500328        4.4990012429
  C        26.5688937653       17.8273016247        2.3310089229
  C        25.2545378463       17.8699937414        3.0370633136
  C        24.9887509776       18.8735254353        3.9807119828
  C        23.7713490243       18.8955840936        4.6552569521
  C        22.7903824711       17.9144662897        4.4086169503
  C        23.0502729022       16.9358551229        3.4322746432
  C        24.2688983852       16.9111773989        2.7568034268
  C        21.5270078372       17.8937546508        5.1819459508
  C        21.5511723328       17.8818034185        6.6034692596
  C        22.7695525755       17.7617460445        7.3448447676
  C        14.0467790953       17.8285404496        2.2944093274
  C        15.3503876712       17.8842239634        3.0200686877
  C        15.6063836812       18.8843597948        3.9711962667
  C        16.8150129996       18.9030598932        4.6646215044
  C        17.8021412635       17.9245873856        4.4292989737
  C        17.5509426222       16.9491154127        3.4457849695
  C        16.3418015822       16.9256132307        2.7539891708
  C        19.0709961392       17.9050878995        5.1982844907
  C        19.0698975746       17.9007819663        6.6207518557
  C        17.8630450838       17.8030848191        7.3823482985
  C        46.8070977321       17.2198976118        2.1650133382
  C        45.5194585134       17.1609531591        2.9148598127
  C        45.3151582473       16.1831990238        3.9005031008
  C        44.1354413090       16.1665352071        4.6396051122
  C        43.1311847470       17.1279641547        4.4143520159
  C        43.3335090921       18.0867796722        3.4034274219
  C        44.5138808768       18.1071183292        2.6653102539
  C        41.8774070076       17.1366401374        5.2010472810
  C        41.8789134433       17.1273179509        6.6227584996
  C        43.0853788318       17.2188199120        7.3857496662
  C        20.3168593638       17.9093592955        7.3287800730
  C        20.2949516364       17.8850645408        4.5156004576
  C        46.7834031801       17.2297843130       13.8856546230
  C        45.4768788217       17.1191810653       13.1742975606
  C        45.2575726922       16.1183966043       12.2155742273
  C        44.0677827629       16.0876836218       11.4919176826
  C        43.0669266859       17.0544329090       11.7099902940
  C        43.2758556034       18.0238950530       12.7086769353
  C        44.4670639929       18.0611052298       13.4271121295
  C        41.8215343489       17.0758666493       10.9103209774
  C        41.8504238641       17.0944431373        9.4891937454
  C        43.0720478618       17.2007213655        8.7520972428
  C        46.1533657180       26.6371463980        8.7212267920
  C        46.1628218431       26.6562811128       11.5308492497
  C        14.0461195207       17.8318190046       13.7036496957
  C        15.3671285404       17.9059358892       13.0141405766
  C        15.6405541127       18.9192308692       12.0831338433
  C        16.8697419047       18.9552919484       11.4286592942
  C        17.8533959185       17.9772559209       11.6791150193
  C        17.5870415855       16.9936289704       12.6489627511
  C        16.3599042026       16.9568558739       13.3069131452
  C        19.1204217728       17.9498040856       10.9099570042
  C        19.0957125976       17.9224634452        9.4885818023
  C        17.8756907649       17.8127683748        8.7483244189
  C        28.8078945123       14.0846691341        2.3631990090
  C        28.1999549328       12.9139099430        3.0588367649
  C        28.9194088152       12.1903356968        4.0205483220
  C        28.3232425439       11.1169944380        4.6777609307
  C        26.9926118644       10.7443629252        4.3989137436
  C        26.2943001574       11.4505403680        3.4029587620
  C        26.8885168829       12.5235921415        2.7438201488
  C        26.3245853375        9.6650339233        5.1623767951
  C        26.3074841759        9.6932305372        6.5835024234
  C        26.8042278118       10.8096609273        7.3281462863
  C        32.1545546647       21.2625342850        2.1868764275
  C        32.7487617778       22.4337088374        2.8964966975
  C        32.0092221622       23.1085431383        3.8792927426
  C        32.5850078058       24.1508669173        4.5985310468
  C        33.9161781015       24.5414278464        4.3574284761
  C        34.6366893551       23.8872073459        3.3411038973
  C        34.0620899443       22.8420625927        2.6214460295
  C        34.5543503717       25.6100766001        5.1566456700
  C        34.5564133220       25.5724757633        6.5775993860
  C        34.0536062688       24.4519977277        7.3116948476
  C        25.6990709232        8.6144043047        7.3026091637
  C        25.6906883984        8.6119012183        4.4896780008
  C        32.1068446661       21.2330772870       13.8857187893
  C        32.7034998635       22.3794068795       13.1391849233
  C        31.9715850037       23.0385890954       12.1394681360
  C        32.5551377438       24.0647851313       11.4007672497
  C        33.8839279283       24.4627210585       11.6456231399
  C        34.5990100554       23.8169530392       12.6722061061
  C        34.0204618316       22.7840859955       13.4051316629
  C        34.5234918996       25.5451744056       10.8644493034
  C        34.5387214048       25.5399689201        9.4429693408
  C        34.0446469244       24.4369987498        8.6780694973
  C        40.6154108416       17.0961467029        8.7613490441
  C        40.5881362520       17.1013802921       11.5713020912
  C        28.7241963101       14.0998331294       13.7745792267
  C        28.1214047672       12.9481968738       13.0414390090
  C        28.8551613910       12.2544404360       12.0668225423
  C        28.2784381565       11.1890087436       11.3798200901
  C        26.9514353298       10.7913599053       11.6402215066
  C        26.2356822660       11.4723361186       12.6429913821
  C        26.8110441971       12.5368534118       13.3334597829
  C        26.3119065740        9.6971685533       10.8711967711
  C        26.3027256167        9.7097976851        9.4491817956
  C        26.7995900556       10.8182860720        8.6938186641
  C        18.1356067982        3.1812225364        2.3223239580
  C        17.4064381256        4.2785115292        3.0209688689
  C        16.3903440781        4.0002245578        3.9480992787
  C        15.7426799758        5.0402582668        4.6115636573
  C        16.0950136855        6.3839287115        4.3722104409
  C        17.0848612029        6.6533974024        3.4089189198
  C        17.7338857394        5.6159954729        2.7438802335
  C        15.4706612493        7.4916076570        5.1352722826
  C        15.4856686979        7.4907537615        6.5569862996
  C        16.1871195569        6.4970514113        7.3101384709
  C        42.9459769293       31.8596548990        2.0780281625
  C        43.6463961572       30.7719319965        2.8220706045
  C        44.5917828099       31.0932708051        3.8082486402
  C        45.1975123598       30.0877194783        4.5559158184
  C        44.8712326424       28.7346538303        4.3409050356
  C        43.9455475675       28.4203017429        3.3275797943
  C        43.3367074926       29.4254539030        2.5795634271
  C        45.4888061656       27.6553201917        5.1440629130
  C        45.4927982729       27.6807968260        6.5657591456
  C        44.8055074643       28.6887100685        7.3123768578
  C        14.8566849636        8.5632211809        7.2693647480
  C        14.8756209463        8.5635158564        4.4566998536
  C        42.9464299270       31.9617352997       13.8038780485
  C        43.6917789918       30.8855348928       13.0903768424
  C        44.6561505299       31.1914597599       12.1178926420
  C        45.2777246018       30.1718784275       11.4001753870
  C        44.9542189543       28.8215514320       11.6380410795
  C        44.0209283868       28.5238756445       12.6489851657
  C        43.3926288591       29.5406415939       13.3611489515
  C        45.5632573140       27.7241279329       10.8528057294
  C        45.5333164600       27.7172684567        9.4315091187
  C        44.8267997666       28.7073672753        8.6785609666
  C        35.1423154949       26.6356103957        8.7417715413
  C        35.1293161751       26.6034461043       11.5513636029
  C        18.1486634852        3.2471552905       13.7014818266
  C        17.4301540714        4.3440027583       12.9922145662
  C        16.4146738403        4.0527603473       12.0689293445
  C        15.7664348673        5.0834182720       11.3935304033
  C        16.1214127873        6.4286112971       11.6160089306
  C        17.1131513982        6.7119695102       12.5728918625
  C        17.7607645993        5.6830307020       13.2526798916
  C        15.4908831254        7.5242889964       10.8435696783
  C        15.4965992230        7.5075717004        9.4224395301
  C        16.1933175101        6.5058366214        8.6757426863
  H        10.6724880844       12.4654224367       11.8998543641
  H        11.6949089468       10.5506421332       10.6579909526
  H        15.3923706935       11.1696575434       12.7663713100
  H        14.3518998813       13.0723643812       14.0114470588
  H        13.3766306198       11.6314381788        9.1962994615
  H        50.3228182183       22.7477844392       11.9810981361
  H        49.3198035993       24.6223031307       10.6751408046
  H        45.6431868147       24.1625838487       12.8598514057
  H        46.6640394083       22.2915116398       14.1680957420
  H        47.6302276289       23.5759838829        9.2411320614
  H        14.8728488120        8.5886744365       12.6035000199
  H        50.2869597535       22.7019898252        4.0659946278
  H        49.2691490078       24.5748985876        5.3660451560
  H        45.6111951013       24.1103336644        3.1502775594
  H        46.6532621846       22.2549658754        1.8358857534
  H        47.6081241908       23.5519045605        6.8020386530
  H        40.6646772065       17.1318866867        3.4304256079
  H        48.6873786539       14.0951713313       15.7950134117
  H        10.6814976492       12.4663051200        4.0980942465
  H        11.6900516773       10.5244394900        5.3017778959
  H        15.3944863282       11.1603613355        3.2117323925
  H        14.3658655516       13.0886365959        1.9965764813
  H        13.3764128429       11.6225111937        6.7583188583
  H        47.9303108856       14.2190082471        1.7159249094
  H        47.7802696739       14.3752549668       14.4906714192
  H        49.0850325047       18.5529888295        2.8727400792
  H        10.4166329990       14.1343160932        0.0037865585
  H        24.4828628529        3.0313854452       11.9068287005
  H        25.6222895230        4.8893764595       10.6798542059
  H        23.2504813912        7.7569655064       12.8361809181
  H        22.1296441135        5.8893914933       14.0652193301
  H        23.8187193650        5.7919837348        9.2510814158
  H        36.3678910479       32.1867623316       11.9740826773
  H        35.2443202461       30.3567896713       10.6983632803
  H        37.5205179596       27.4412233409       12.8937522922
  H        38.6232338156       29.2837661858       14.1790300157
  H        37.0300245703       29.4561805772        9.2863291811
  H        25.7356345209        8.6181619440       12.6374474871
  H        36.4659645691       32.2541940476        4.1196194573
  H        35.3525767111       30.4422303517        5.4241054137
  H        37.5269214124       27.4945678060        3.1676893683
  H        38.6160693763       29.3184705250        1.8515479528
  H        37.0485546630       29.4821245463        6.8478435029
  H        46.1098351308       26.5879033625        3.3907475347
  H        44.6681515982       35.1162543062       15.8089538734
  H        24.4415361354        3.0384392194        4.0860712712
  H        25.5785339336        4.8770914516        5.3331656109
  H        23.1766706726        7.7678633919        3.2429098774
  H        22.0514888277        5.9174567030        1.9952105432
  H        23.8019852825        5.7909427436        6.8129511403
  H        44.9533696382       34.3899921897        1.7000657128
  H        44.9011413790       34.2065616931       14.4857287581
  H        40.6666204920       33.2098461448        2.8585569304
  H        23.1504765220        1.9584180296        0.0097000568
  H        25.8284958320       19.6303534527       11.8945258830
  H        23.6577135295       19.6769947102       10.6600031083
  H        22.3415117189       16.2260676265       12.8639444271
  H        24.5135993550       16.1986024612       14.0979681066
  H        23.7225642461       17.6475856247        9.2405938384
  H        35.1570383434       15.4091121045       12.0440557512
  H        37.2728690313       15.3634464084       10.7118507488
  H        38.6663440639       18.8341898164       12.8340893139
  H        36.5381951271       18.8753418458       14.1507870448
  H        37.2206760030       17.3580750398        9.2343253209
  H        20.3598952816       17.9775134518       12.6644299986
  H        35.2149006444       15.4380993879        4.0489018909
  H        37.3532932309       15.3765509051        5.3437045884
  H        38.7280237215       18.8506226852        3.2137290298
  H        36.5887000931       18.8884325400        1.9137138682
  H        37.2438828666       17.3696138970        6.7910403260
  H        35.1362596357       26.7118531705        3.4116587536
  H        28.5078217421       21.0839116491       15.9819675463
  H        25.7493585171       19.6278997383        4.1682878810
  H        23.5650950519       19.6771926876        5.3832596981
  H        22.3011770807       16.1713082283        3.2366837942
  H        24.4865729337       16.1432667123        2.0183551359
  H        23.7001413643       17.6321497019        6.8002241152
  H        29.0052897774       21.7188637061        1.7716271796
  H        29.1525207742       21.7508628946       14.6225739654
  H        32.0649244788       18.5414618838        3.0126048287
  H        27.3961875969       19.0706576540        0.1004951940
  H        14.8478237783       19.6427338489        4.1516748202
  H        17.0098434606       19.6848761496        5.3955900599
  H        18.3027167112       16.1860534058        3.2546526041
  H        16.1366344561       16.1589840090        2.0106053041
  H        16.9202507889       17.6877450520        6.8555657160
  H        46.0977020823       15.4496838804        4.0798125332
  H        43.9764418642       15.3999318486        5.3947815332
  H        42.5660794814       18.8374884947        3.2265152737
  H        44.6872479809       18.8609486032        1.9009132862
  H        44.0285046209       17.3363815817        6.8596655456
  H        20.2889158551       17.9169662619        3.4275294884
  H        46.0358422268       15.3797108209       12.0377714944
  H        43.9020536189       15.3117415009       10.7476877537
  H        42.5086938551       18.7751733286       12.8843271753
  H        44.6495435491       18.8295101069       14.1743834786
  H        44.0048256400       17.3032086532        9.2989844979
  H        46.1999296794       26.6830302004       12.6182811407
  H        52.7414932079       21.0627995062        0.1998497277
  H        14.8799579872       19.6722660982       11.8889987776
  H        17.0808200580       19.7438301831       10.7095282490
  H        18.3380323199       16.2325227290       12.8505408566
  H        16.1391411580       16.1841568467       14.0392697704
  H        16.9423529511       17.7049865572        9.2926721615
  H        52.3232851554       21.6736062703       14.2888681645
  H        52.0139076377       21.7026278673        1.5008205535
  H        49.0679196478       18.6076570031       13.1986864118
  H        13.2480568040       19.0157761770       15.9724038773
  H        29.9410128465       12.4890601015        4.2431872151
  H        28.8827007910       10.5555208117        5.4227504719
  H        25.2655592189       11.1745375421        3.1807320418
  H        26.3460660572       13.0905524802        1.9912824049
  H        27.1632423020       11.6810621299        6.7885024800
  H        30.9882342444       22.7897722622        4.0744982757
  H        32.0081944438       24.6751319469        5.3572919712
  H        35.6666513915       24.1815254262        3.1501795463
  H        34.6223303758       22.3094009278        1.8566118304
  H        33.6984331939       23.5851355966        6.7618502705
  H        25.7224953503        8.5911806578        3.4017508282
  H        30.9461245966       22.7302060258       11.9495764394
  H        31.9808627553       24.5780145294       10.6325189759
  H        35.6273909056       24.1146429472       12.8664085624
  H        34.5763731307       22.2634913620       14.1814584041
  H        33.6822671302       23.5583264777        9.2038414969
  H        40.5773441129       17.0658133676       12.6590620304
  H        32.5155992481       14.1439937845        0.2624118639
  H        29.8801340028       12.5580329742       11.8662207112
  H        28.8556355140       10.6477255026       10.6334151064
  H        25.2088118556       11.1787945759       12.8510973826
  H        26.2549880010       13.0774421567       14.0957769783
  H        27.1537069017       11.6970122607        9.2245715195
  H        33.2924761312       14.1919290202       14.4278992194
  H        33.4098015282       14.4317152735        1.5996616023
  H        32.1642034392       18.5886163399       13.2216464410
  H        30.2256796632       14.1911784137        0.0725838049
  H        16.1179728687        2.9637535113        4.1342229230
  H        14.9529507863        4.8209692561        5.3269418614
  H        17.3677822945        7.6862147855        3.2162001913
  H        18.5163067171        5.8186219501        2.0164355874
  H        16.7537552017        5.7397799696        6.7766251038
  H        44.8279194664       32.1403797691        3.9825005903
  H        45.9372787598       30.3414967369        5.3119520157
  H        43.6829764781       27.3782189817        3.1573620678
  H        42.6001919732       29.1901775251        1.8147819350
  H        44.2301089802       29.4364251715        6.7740420472
  H        14.8522178454        8.5469675019        3.3684700126
  H        44.8994775803       32.2341681143       11.9263022465
  H        46.0244786236       30.4131427920       10.6467978984
  H        43.7642161206       27.4841259142       12.8407638978
  H        42.6463171267       29.3178959807       14.1197953545
  H        44.2682358389       29.4702033880        9.2131621432
  H        35.0858920760       26.6137819717       12.6387838759
  H        36.6051134614       35.1343576429        0.1855319296
  H        16.1433750780        3.0132060670       11.8994198696
  H        14.9739378594        4.8566511473       10.6836146362
  H        17.3970709327        7.7473855669       12.7494323581
  H        18.5439829393        5.8934636996       13.9770820272
  H        16.7648024846        5.7556399828        9.2141873807
  H        36.2789069069       34.4825640247       14.2681206928
  H        36.3812504443       34.2091249758        1.5043602035
  H        40.5803921071       33.2030700176       13.1484567067
  H        17.4707492123        1.9480140364       15.9690206522
  H        29.0800096560       19.1905166625        4.5391025085
  H        29.7578992843       19.9667784157       11.6770379527
  H        32.3782031638       16.1550778418       10.8013407591
  H        31.3011651966       15.5095440141        4.5094689047
  H        28.3052448991       17.5513284086        6.7158042254
  H        32.4402363178       14.5508771156        9.0148065988
  H        31.4811163685       20.0730643888        9.5644718697
  H        33.7935324816       16.4104978669       10.1560019490
  H        29.2032599104       16.4993744495        9.4282470120
  H        18.8531182609        0.8690810205        4.3403410892
  H        40.5279103573       35.2291124920       11.9468837580
  H        42.3244758513       34.4193360710       11.5852738057
  H        22.0874688153        0.6918015109        4.3569976115
  H        11.5967736137       18.7128208622        4.3877528499
  H        52.2653181288       18.4316477250       11.6721857935
  H        49.2558094737       16.4769656244       11.5790059880
  H        10.1507632732       15.7982720243        4.2975412989
  H        50.8507561898       17.6925016948       11.9490293094
  H        10.0463374659       17.3946673263        4.0569818690
  H        20.2140154116        0.0021113775        4.0471990344
  H        39.1837525625       36.1244363152       11.6809880940
  H        32.4358023650       18.3523581602        8.0868379545
 Ni        30.6874107244       17.9653696162       10.9910186581
 Ni        31.1987997323       16.2520662027        7.8250063667
 Ni        30.0170061712       18.6932909943        8.0789077345
 Ni        30.0602795179       17.2121102968        5.1651811151
  O        10.6500056328       14.3651761789       13.4807534400
  O        12.6131818255       14.6575357736       14.5788123208
  O        49.1479101962       16.8458626259       15.9844744384
  O        50.3503440685       20.9356832767       13.6428711381
  O        48.3485838253       20.5932792493       14.6607465880
  O        11.0518850388       17.0537875269       14.4956839562
  O        50.3209774374       20.8816056622        2.4119860793
  O        48.3467588084       20.5867129230        1.3321727615