     562
 i =      291, E =     -4678.9506060957
  C        11.8585854418       14.0534128764        21.731318429038
  C        12.4559259585       12.8904201666        21.013052937338
  C        11.7042357268       12.1716340457        20.071269789538
  C        12.2804993830       11.1093561220        19.378948834238
  C        13.6210070092       10.7393185287        19.606760559038
  C        14.3541673143       11.4427211586        20.580371142738
  C        13.7813694351       12.5077449399        21.271879853638
  C        14.2603950935        9.6485758868        18.833351588038
  C        14.2554411253        9.6563656122        17.411645008838
  C        13.7422438326       10.7584546225        16.657713696738
  C        49.1266471461       21.2334109479        21.869519130338
  C        48.5498145911       22.4012925023        21.142528772938
  C        49.2997593929       23.0684677334        20.161354971038
  C        48.7328018876       24.1075575220        19.428127794438
  C        47.4022946414       24.5092754611        19.656849129438
  C        46.6714359128       23.8605640023        20.670547501738
  C        47.2339091862       22.8156899568        21.399918004338
  C        46.7720471015       25.5869099446        18.859529901438
  C        46.7610364129       25.5572415929        17.437775181838
  C        47.2609394388       24.4421247154        16.694297127838
  C        14.8592323677        8.5699514171        16.698363904338
  C        14.8913112908        8.5966827232        19.509975686538
  C        49.1129311339       21.2034615718       10.1452956918
  C        48.5275280679       22.3647946725       10.8723768598
  C        49.2666176588       23.0252343886       11.8655879195
  C        48.6902814681       24.0597698709       12.5970483365
  C        47.3599762039       24.4567913657       12.3585987958
  C        46.6397607762       23.8122105572       11.3347169758
  C        47.2133106170       22.7763343677       10.6028980410
  C        46.7215060343       25.5317027447       13.1496466522
  C        46.7332111197       25.5280055473       14.5713482664
  C        47.2486728827       24.4288125192       15.3277449127
  C        40.6170179986       17.1030893598       15.3165690989
  C        40.6351780069       17.1507414551       12.5060961374
  C        11.8828110358       14.0863270866       10.2854867982
  C        12.4717417687       12.9102907500       10.9895251924
  C        11.7141418643       12.1775301476       11.9159349490
  C        12.2804383844       11.0949390884       12.5843546948
  C        13.6190466507       10.7205693157       12.3522622334
  C        14.3569996789       11.4355884259       11.3910158937
  C        13.7918787909       12.5168937986       10.7182967364
  C        14.2524652945        9.6237759645       13.1227399659
  C        14.2512149495        9.6438120960       14.5445853270
  C        13.7415441108       10.7528470075       15.2916671055
  C        22.5062430229        3.2428956969        21.738429074538
  C        23.2092484635        4.3465409061        21.026952806138
  C        24.2070760876        4.0648396749        20.082382266838
  C        24.8275063425        5.1029290413        19.392781615538
  C        24.4643212621        6.4437602778        19.627561763038
  C        23.4913708094        6.7170962202        20.606054296838
  C        22.8672174916        5.6809906035        21.294937380038
  C        25.0715640378        7.5492810350        18.853641824138
  C        25.0638835061        7.5387181999        17.432523917838
  C        24.3724109107        6.5367972027        16.680667989638
  C        38.3015737698       31.9263388169        21.837043918338
  C        37.5697242816       30.8365908136        21.126048602938
  C        36.6078314633       31.1418692656        20.150435332738
  C        35.9853985505       30.1235865130        19.432699328838
  C        36.3083708002       28.7723158400        19.667243649938
  C        37.2415601144       28.4745429764        20.678679178538
  C        37.8681330511       29.4916907318        21.395510945338
  C        35.6990299492       27.6819462062        18.869575142538
  C        35.7285018838       27.6965671035        17.447367539838
  C        36.4340171514       28.6983622246        16.709097041438
  C        25.6953729888        8.6079618334        16.719149214438
  C        25.6545578452        8.6278061247        19.529925895138
  C        38.3263172500       31.9606323509       10.1558323941
  C        37.5996976068       30.8870166704       10.8947460009
  C        36.6679511486       31.1957418023       11.8979493977
  C        36.0523045975       30.1777898518       12.6242656472
  C        36.3532065995       28.8240130394       12.3723266126
  C        37.2623914508       28.5253349683       11.3386745416
  C        37.8800211083       29.5398657247       10.6132966078
  C        35.7412232951       27.7251733104       13.1562750866
  C        35.7499859646       27.7185841321       14.5789101545
  C        36.4436463355       28.7093710463       15.3424270248
  C        46.1352057174       26.6206452085       15.2814776489
  C        46.0875614828       26.5800659135       12.4735875802
  C        22.4654499210        3.2545472202       10.2527413310
  C        23.1718320808        4.3608073966       10.9655853442
  C        24.1824212292        4.0700995973       11.8958089058
  C        24.8207299738        5.0976323673       12.5855982449
  C        24.4678283714        6.4441654265       12.3674451502
  C        23.4819047750        6.7283358211       11.4040363988
  C        22.8392888723        5.7010611438       10.7141002813
  C        25.1006003493        7.5385216358       13.1443343030
  C        25.0793032437        7.5326535952       14.5663093505
  C        24.3768803998        6.5358473303       15.3144614269
  C        26.5582401672       17.8275499741        21.777900690238
  C        25.2584134241       17.8871373356        21.050606205238
  C        25.0062552145       18.8998778097        20.112359265838
  C        23.7990976564       18.9299162737        19.418855998038
  C        22.8117897617       17.9501232026        19.643351217838
  C        23.0590638827       16.9601968014        20.612646594738
  C        24.2676685342       16.9254181365        21.304646241838
  C        21.5464070449       17.9455626880        18.871238648838
  C        21.5551079453       17.9437947633        17.449263972438
  C        22.7653954091       17.8358392972        16.693821370638
  C        34.4175592959       17.2147164264        21.898570678738
  C        35.7118286950       17.1484324294        21.160904256138
  C        35.9053672911       16.1825906559        20.160862915138
  C        37.0886782132       16.1567250401        19.427632796738
  C        38.1096195390       17.0964873215        19.671431705438
  C        37.9179641332       18.0418092203        20.697607700138
  C        36.7333540171       18.0722732519        21.429843814738
  C        39.3639403250       17.1000014711        18.883151202238
  C        39.3592455657       17.1131630886        17.460561822638
  C        38.1520120212       17.2318019921        16.702082330838
  C        20.3112671314       17.9652686804        16.737186959138
  C        20.3206524774       17.9362918521        19.549488348138
  C        34.4500087590       17.1900668388       10.1743604597
  C        35.7531134816       17.1201889061       10.8945923907
  C        35.9908505328       16.1218975268       11.8526093964
  C        37.1746705429       16.1175948142       12.5853347550
  C        38.1558229584       17.1059952719       12.3752175740
  C        37.9273877062       18.0777927701       11.3826315507
  C        36.7389248053       18.0911672522       10.6570027121
  C        39.4041852624       17.1290052805       13.1714005328
  C        39.3797528884       17.1274588534       14.5928953969
  C        38.1615639635       17.2354422661       15.3352137262
  C        35.1187742438       26.6395971096       15.2832070384
  C        35.1500303275       26.6543432621       12.4736265042
  C        26.5608399893       17.8284930143       10.3242293480
  C        25.2468999220       17.8860647010       11.0232063753
  C        24.9688765888       18.9223141208       11.9275381226
  C        23.7519589222       18.9541178856       12.6018696884
  C        22.7846966425       17.9522974491       12.3907969802
  C        23.0545876464       16.9420360330       11.4502537928
  C        24.2730162112       16.9062146094       10.7761246023
  C        21.5209250905       17.9425843402       13.1622282781
  C        21.5415077007       17.9428295864       14.5830790739
  C        22.7589742047       17.8362589275       15.3275292201
  C        14.0449647572       17.8325791628       10.2836254820
  C        15.3509733241       17.8992351453       11.0004717446
  C        15.6085888476       18.9157454305       11.9330100903
  C        16.8187406480       18.9450714096       12.6219189901
  C        17.8019479244       17.9605860061       12.3989772568
  C        17.5502137593       16.9693519452       11.4323002779
  C        16.3396033226       16.9357614479       10.7445010143
  C        19.0677154451       17.9493167506       13.1694230816
  C        19.0603068083       17.9507281753       14.5909157343
  C        17.8494837882       17.8508921866       15.3459410974
  C        46.8033547844       17.2190135030       10.1592689341
  C        45.5116987553       17.1574943983       10.9044996021
  C        45.3026351552       16.1784196162       11.8882829348
  C        44.1196312709       16.1600124040       12.6229161615
  C        43.1144215677       17.1209920277       12.3970495101
  C        43.3210178935       18.0799970581       11.3868027782
  C        44.5046052000       18.1020000222       10.6527980535
  C        41.8597467361       17.1304756241       13.1850239377
  C        41.8639585436       17.1214212086       14.6075059945
  C        43.0724237379       17.2136971530       15.3674734174
  C        20.3040298605       17.9636318990       15.3033042793
  C        20.2927431864       17.9254299533       12.4907703710
  C        46.7826704485       17.2310661570        21.877589764938
  C        45.4780522745       17.1227164029        21.161712484538
  C        45.2594124225       16.1219828744        20.202436335038
  C        44.0701934628       16.0905650302        19.477452480038
  C        43.0681188045       17.0566704400        19.693772630238
  C        43.2773627177       18.0275371774        20.691317793438
  C        44.4678322990       18.0653256783        21.411353629238
  C        41.8201135301       17.0747213617        18.896849464338
  C        41.8438814454       17.0912158684        17.475435756438
  C        43.0627589691       17.1969241011        16.734063158638
  C        46.1529802155       26.6370887831        16.716021035538
  C        46.1621137849       26.6560378919        19.525661899638
  C        14.0401390523       17.8288088320        21.696088059138
  C        15.3539198995       17.8995586446        20.995908596938
  C        15.6231655383       18.9240060049        20.076369933438
  C        16.8470485340       18.9635112998        19.413589207338
  C        17.8262664680       17.9774492682        19.645768298338
  C        17.5625160044       16.9787358015        20.600295300438
  C        16.3409185877       16.9390908481        21.267291203338
  C        19.0921950598       17.9621502717        18.877885153138
  C        19.0733062994       17.9558800751        17.456916739538
  C        17.8559039611       17.8530631105        16.711908784038
  C        28.8072338788       14.0819648107       10.3608389652
  C        28.2144894001       12.9036959647       11.0497012582
  C        28.9434392559       12.1821332019       12.0066827244
  C        28.3531946006       11.1063308431       12.6656807240
  C        27.0227649968       10.7296597135       12.3908015531
  C        26.3178873693       11.4317928159       11.3963423112
  C        26.9039464868       12.5077763356       10.7366548905
  C        26.3559899737        9.6489775956       13.1521394215
  C        26.3287623290        9.6774313304       14.5727819331
  C        26.8231892182       10.7918271396       15.3221566867
  C        32.1756206196       21.2426160950       10.1012104116
  C        32.7619975668       22.4063335491       10.8279810588
  C        32.0149873499       23.0618551815       11.8196577171
  C        32.5813297769       24.0971627509       12.5582518164
  C        33.9094797436       24.5069212867       12.3277479403
  C        34.6380879981       23.8675601852       11.3059401709
  C        34.0759468197       22.8262893147       10.5697205683
  C        34.5351387373       25.5829264864       13.1323521743
  C        34.5279753834       25.5545900632       14.5548583604
  C        34.0241579634       24.4383085525       15.2943598854
  C        25.7095297110        8.6005706429       15.2853895099
  C        25.7244574465        8.5982421248       12.4735965823
  C        32.0751036880       21.1945652151        21.832172150238
  C        32.6594108465       22.3583658863        21.100624567438
  C        31.9346911419       23.0068853438        20.088521141338
  C        32.5130025016       24.0474263400        19.364485569538
  C        33.8318160463       24.4681904593        19.628925374738
  C        34.5371676640       23.8340928053        20.670135182738
  C        33.9629161088       22.7911532731        21.392477768238
  C        34.4764327166       25.5495408060        18.846412550438
  C        34.4977745257       25.5381932637        17.423615222938
  C        34.0085182810       24.4310445770        16.661133280438
  C        40.6062436826       17.0912696731        16.751634938638
  C        40.5887215980       17.0969426210        19.561672636338
  C        28.6651672760       14.0625845241        21.809248943438
  C        28.0612284758       12.9179967113        21.069107870938
  C        28.8140814498       12.2094888319        20.120146873638
  C        28.2414379897       11.1545672816        19.415481215438
  C        26.9013751940       10.7808439952        19.637528476938
  C        26.1648808070       11.4749493444        20.615429341538
  C        26.7355604350       12.5321453003        21.320991664738
  C        26.2729697129        9.6890502489        18.858091065638
  C        26.2873896585        9.6981305857        17.436846349338
  C        26.8010331511       10.8029144806        16.687712280838
  C        18.1353160095        3.1808813923       10.3171576292
  C        17.4056792320        4.2779863891       11.0156944683
  C        16.3897469376        3.9993590601       11.9428924092
  C        15.7417153522        5.0391624613       12.6063732739
  C        16.0935390075        6.3829472117       12.3669826257
  C        17.0831346887        6.6527401440       11.4035199994
  C        17.7325347161        5.6155747139       10.7384750151
  C        15.4689570790        7.4904914258       13.1300615308
  C        15.4842294529        7.4898153286       14.5517795148
  C        16.1858786448        6.4962485016       15.3049191296
  C        42.9457029839       31.8594637650       10.0728126624
  C        43.6460554275       30.7717173294       10.8167642011
  C        44.5916251629       31.0930381028       11.8027852938
  C        45.1973001636       30.0874934842       12.5504821344
  C        44.8707594721       28.7344586711       12.3356626347
  C        43.9448765045       28.4201081675       11.3225132910
  C        43.3360920485       29.4252627331       10.5744549435
  C        45.4883067416       27.6551505397       13.1388635748
  C        45.4924925588       27.6807679753       14.5605561524
  C        44.8054052684       28.6888265466       15.3071646719
  C        14.8552781481        8.5623273224       15.2641343680
  C        14.8736599023        8.5622227987       12.4514547678
  C        42.9463943005       31.9615930453        21.798789625638
  C        43.6915582798       30.8854030884        21.085246112138
  C        44.6563119624       31.1913000620        20.113117653138
  C        45.2777742331       30.1716954869        19.395355165738
  C        44.9537877109       28.8214134712        19.632828245338
  C        44.0200720110       28.5237656240        20.643383357738
  C        43.3918645717       29.5405397298        21.355600187138
  C        45.5627937790       27.7239911314        18.847583244338
  C        45.5330400449       27.7172719057        17.426291483138
  C        44.8267186580       28.7075079909        16.673347873638
  C        35.1057624570       26.6298791373        16.718940131838
  C        35.0894412525       26.6081788814        19.529353334838
  C        18.1484479731        3.2467901129        21.696422658438
  C        17.4297900766        4.3435838519        20.987024224738
  C        16.4144378099        4.0522348808        20.063649453938
  C        15.7660071760        5.0828146616        19.388281932738
  C        16.1207092259        6.4280683662        19.610815838138
  C        17.1123327644        6.7115308070        20.567791573938
  C        17.7600933291        5.6826682917        21.247562273138
  C        15.4900349811        7.5236936967        18.838382497138
  C        15.4956110155        7.5069298695        17.417240440938
  C        16.1922929942        6.5051886368        16.670522972538
  H        10.6721686029       12.4659186059        19.894160802738
  H        11.6941756784       10.5509702246        18.652367216438
  H        15.3911342975       11.1679468430        20.762199906138
  H        14.3508621345       13.0707447251        22.007469407838
  H        13.3754644697       11.6307015152        17.190978046838
  H        50.3224437114       22.7483861940        19.976555052138
  H        49.3192252954       24.6227382829        18.670443668438
  H        45.6419976659       24.1614635936        20.853820197338
  H        46.6629726176       22.2905852414        22.162164085238
  H        47.6295118268       23.5757624971        17.235981696838
  H        14.8718960303        8.5880209094        20.598287355138
  H        50.2865715596       22.7022080673       12.0606830988
  H        49.2685802081       24.5750416290       13.3607449392
  H        45.6104941786       24.1097555983       11.1453818492
  H        46.6526379323       22.2544830300        9.8310160805
  H        47.6074406907       23.5516716938       14.7968816669
  H        40.6412263710       17.1269956307       11.4179940450
  H        48.6870159178       14.0951486602        23.789782430238
  H        10.6808495656       12.4670736814       12.0935913403
  H        11.6885926209       10.5248789501       13.2972720565
  H        15.3922574282       11.1572249149       11.2048203397
  H        14.3643026015       13.0858526691        9.9895114366
  H        13.3747886330       11.6214984702       14.7530475499
  H        47.9301535956       14.2183167188        9.7110231461
  H        47.7799582374       14.3739134538        22.485089766838
  H        49.0832927246       18.5524195147       10.8672290805
  H        10.4159701551       14.1343038083        7.9987355263
  H        24.4751072270        3.0264308231        19.900828127738
  H        25.6037063224        4.8857066424        18.662227436038
  H        23.2034881941        7.7497855885        20.791619773038
  H        22.0952925167        5.8812018613        22.033922617938
  H        23.8061322529        5.7802090241        17.216003181538
  H        36.3717986150       32.1855483680        19.956456711738
  H        35.2393757648       30.3667453127        18.679251946638
  H        37.5004743177       27.4349076683        20.868570528338
  H        38.6130656288       29.2666987537        22.155203008638
  H        36.9994915119       29.4483380540        17.254513328938
  H        25.6738937576        8.6141724987        20.618136915338
  H        36.4466399728       32.2400844994       12.1064003579
  H        35.3248462034       30.4247247382       13.3944003487
  H        37.5077889637       27.4849105637       11.1359574123
  H        38.6039896645       29.3122561028        9.8346217156
  H        37.0175218346       29.4673876100       14.8171732489
  H        46.1090111125       26.5875294957       11.3855532623
  H        44.6682392551       35.1162014549        23.803897826338
  H        24.4568018508        3.0305885972       12.0602980602
  H        25.6064450293        4.8665469651       13.3017336847
  H        23.1991199615        7.7641070911       11.2274647529
  H        22.0614872140        5.9164402710        9.9851179835
  H        23.8132139240        5.7791607422       14.7766320955
  H        44.9536314724       34.3899331124        9.6947859474
  H        44.9018613522       34.2068261522        22.480525391438
  H        40.6651484750       33.2084884648       10.8527874213
  H        23.1501450619        1.9578720938        8.0032332693
  H        25.7655571491       19.6595465279        19.942328758738
  H        23.6054157413       19.7200287864        18.696628883438
  H        22.3055764949       16.1959362472        20.791653337038
  H        24.4734534490       16.1486114298        22.037315032738
  H        23.7054216645       17.7190719014        17.225422818938
  H        35.1097727693       15.4677287500        19.963715657838
  H        37.2361794501       15.3999567147        18.660298862138
  H        38.6967193318       18.7767348491        20.890609480038
  H        36.5705968208       18.8187351756        22.203812627038
  H        37.2111689095       17.3523293062        17.231612142138
  H        20.3235324727       17.9610920982        20.637735071238
  H        35.2352086969       15.3576835826       12.0192492813
  H        37.3540139647       15.3423327898       13.3270830729
  H        38.6781434718       18.8471648519       11.2143061100
  H        36.5418028302       18.8604485512        9.9139669221
  H        37.2277985576       17.3571458341       14.7934350687
  H        35.1224557085       26.6811249944       11.3859044759
  H        28.5037163383       21.0988843227        23.860751940338
  H        25.7172235121       19.6954559265       12.0852496258
  H        23.5358762133       19.7581013616       13.3021334541
  H        22.3134626706       16.1631557480       11.2832471826
  H        24.4999102429       16.1141622001       10.0665062764
  H        23.6939983815       17.7206944083       14.7870558921
  H        28.9480632836       21.7383005833        9.7195673809
  H        29.1879684594       21.7068112830        22.506649204938
  H        32.3255306481       18.7319612351       10.7924399105
  H        27.3426946660       19.0633745309        8.0729267438
  H        14.8496298856       19.6761320836       12.1026147535
  H        17.0175238309       19.7372984386       13.3404973946
  H        18.3014646260       16.2029113465       11.2532159844
  H        16.1301718039       16.1580598277       10.0139664329
  H        16.9093196330       17.7383627786       14.8140051732
  H        46.0842823320       15.4446203971       12.0705999981
  H        43.9595101425       15.3922094529       13.3766841342
  H        42.5545039607       18.8310213592       11.2070816445
  H        44.6789252989       18.8571075788        9.8898176537
  H        44.0142333801       17.3311656810       14.8391509553
  H        20.2902844040       17.9461583935       11.4024547144
  H        46.0373152435       15.3825723012        20.025977927638
  H        43.9054073836       15.3133654099        18.734298765638
  H        42.5099630805       18.7788332895        20.865919113038
  H        44.6487538409       18.8344145765        22.158327700438
  H        43.9973561617       17.3000097955        17.277860631638
  H        46.1989790830       26.6826680347        20.613104705538
  H        52.7412330273       21.0626876749        8.1946150506
  H        14.8641044712       19.6828171989        19.899913742738
  H        17.0585177380       19.7612146164        18.704784976138
  H        18.3115745365       16.2112192226        20.783757205938
  H        16.1200396424       16.1576321313        21.990285692138
  H        16.9205369608       17.7423032832        17.252266358738
  H        52.3224698985       21.6736775717        22.284462691738
  H        52.0135702845       21.7026686396        9.4954396752
  H        49.0673154328       18.6076847977        21.193879386138
  H        13.2472651066       19.0164230763        23.965622826738
  H        29.9656037850       12.4848241338       12.2237714221
  H        28.9176267893       10.5462963436       13.4080818274
  H        25.2901243216       11.1499152873       11.1772711088
  H        26.3561569913       13.0723795539        9.9862793385
  H        27.1931473744       11.6607013453       14.7859508670
  H        30.9961142351       22.7318312036       12.0091009316
  H        31.9956158176       24.6030660463       13.3226454748
  H        35.6661018199       24.1723140034       11.1208826003
  H        34.6471136606       22.3096645764        9.8017627869
  H        33.6744682691       23.5656049426       14.7501882036
  H        25.7629370466        8.5788901949       11.3858671643
  H        30.9228167099       22.6717619050        19.872163116838
  H        31.9423676111       24.5494721018        18.586261370438
  H        35.5578898699       24.1454470290        20.882401755838
  H        34.5163815292       22.2808822684        22.177147008338
  H        33.6467239503       23.5525993435        17.187944745738
  H        40.5822595277       17.0596342914        20.649384454638
  H        32.5135128858       14.1462415697        8.1559055439
  H        29.8502182818       12.4948974739        19.954426839738
  H        28.8310517452       10.6014359059        18.687666444638
  H        25.1278212584       11.1970061405        20.791824739438
  H        26.1648285695       13.0854895045        22.063003181438
  H        27.1528243119       11.6802450145        17.222832349038
  H        33.2941321608       14.2504736116        22.355063148938
  H        33.4087644674       14.3620720891        9.5299879474
  H        32.0431534736       18.4867700897        21.075918190038
  H        30.1920899234       14.1387398598        8.0702208323
  H        16.1178012570        2.9627862888       12.1290702086
  H        14.9521208843        4.8195631816       13.3218076551
  H        17.3655708906        7.6856707218       11.2107088595
  H        18.5147721583        5.8184411940       10.0108994376
  H        16.7524264073        5.7389230202       14.7713893605
  H        44.8279462713       32.1401260078       11.9768982415
  H        45.9372059210       30.3412390952       13.3063923932
  H        43.6820933832       27.3780468028       11.1524856331
  H        42.5994051580       29.1899795619        9.8098379690
  H        44.2301023117       29.4366218202       14.7688411537
  H        14.8499780167        8.5454593808       11.3632341695
  H        44.9000059729       32.2339769362        19.921832596538
  H        46.0248149897       30.4129045216        18.642244542238
  H        43.7629031333       27.4840537887        20.834760346038
  H        42.6451934847       29.3178057879        22.113896948438
  H        44.2682672157       29.4704229330        17.207954023538
  H        35.0456619702       26.6219464674        20.616807134038
  H        36.6052056691       35.1338147756        8.1807658074
  H        16.1433216210        3.0126395995        19.894084157038
  H        14.9735336866        4.8558972502        18.678386959238
  H        17.3959603967        7.7469989631        20.744481386538
  H        18.5430719365        5.8931915006        21.972193310638
  H        16.7638454039        5.7550236204        17.208938656638
  H        36.2787861645       34.4819612769        22.263022165438
  H        36.3809721172       34.2091062549        9.4998871097
  H        40.5798179671       33.2023812998        21.143582368738
  H        17.4709128897        1.9470551802        23.963806202538
  H        28.7132850773       19.0628285194       12.3358019412
  H        28.7754543189       19.0135100856        19.718959791238
  H        30.7878777597       15.4128500919        19.760029946238
  H        32.5741997305       16.1898523651       12.2186822645
  H        18.8536756373        0.8689471168       12.3353173002
  H        40.5282638723       35.2287835450        19.941867494938
  H        42.3237302351       34.4186187894        19.580081014438
  H        22.0874421039        0.6921710737       12.3516558276
  H        11.5965780422       18.7128581414       12.3826476387
  H        52.2648620133       18.4313769783        19.667279803338
  H        49.2551275651       16.4764647334        19.573906134238
  H        10.1503818765       15.7982614456       12.2925045347
  H        50.8500494146       17.6927041623        19.943754891438
  H        10.0461027114       17.3947745496       12.0518984682
  H        20.2150232679        0.0020864426       12.0419613756
  H        39.1837172841       36.1243561959        19.676325724538
 Ni        30.3546729229       17.5239142500        18.817595360238
 Ni        31.1093239082       16.5535087547       14.487081490238
 Ni        30.6473914660       17.5924768218        16.407327791638
 Ni        30.7332549941       17.7398958514       12.4149350827
  O        10.6497844675       14.3652134572        21.475610857738
  O        12.6130552063       14.6574187150        22.573624895738
  O        49.1476434929       16.8459082331        23.979433446138
  O        50.3501174820       20.9362245922        21.637990953238