     572
 i =      157, E =     -4777.6954040023
  C        11.8588609172       14.0535336116        21.731310294638
  C        12.4563691396       12.8906533100        21.012991384438
  C        11.7045550624       12.1714609769        20.071623219938
  C        12.2809503545       11.1092599736        19.379298935538
  C        13.6216362628       10.7397309594        19.606786111438
  C        14.3549755407       11.4436501419        20.579852032638
  C        13.7820828619       12.5086362745        21.271338163238
  C        14.2611199983        9.6490256121        18.833417941038
  C        14.2563052362        9.6568758062        17.411734457738
  C        13.7431537598       10.7590192680        16.657855866238
  C        49.1270246109       21.2331729670        21.869415286038
  C        48.5502866032       22.4012148285        21.142366842538
  C        49.3002487658       23.0684407769        20.161271621738
  C        48.7333175571       24.1076153204        19.428101938038
  C        47.4028426000       24.5093756206        19.656882999938
  C        46.6719682866       23.8606295360        20.670541382738
  C        47.2344299701       22.8156907845        21.399848410738
  C        46.7725052076       25.5870363420        18.859630098438
  C        46.7612943293       25.5573414519        17.437865738338
  C        47.2612126430       24.4422375276        16.694366523938
  C        14.8602445555        8.5705401349        16.698480891538
  C        14.8919193905        8.5971087468        19.510058578838
  C        49.1132817239       21.2034744244       10.1453779746
  C        48.5278470050       22.3648452075       10.8726049389
  C        49.2670013881       23.0254551378       11.8656287077
  C        48.6906571037       24.0600130505       12.5970883725
  C        47.3603081194       24.4568964353       12.3587218850
  C        46.6399852438       23.8121364284       11.3350415570
  C        47.2135592369       22.7762310432       10.6032600850
  C        46.7218007873       25.5318382624       13.1497354758
  C        46.7333987852       25.5281214066       14.5714372396
  C        47.2488779603       24.4289213482       15.3278130662
  C        40.6356836969       17.1663274478       15.3226838196
  C        40.6564133813       17.1931384369       12.5138361546
  C        11.8831102243       14.0865587005       10.2855405850
  C        12.4724687409       12.9108587653       10.9898331626
  C        11.7148579565       12.1774348875       11.9156947457
  C        12.2814777865       11.0949965493       12.5841030274
  C        13.6204206329       10.7215352333       12.3525024878
  C        14.3585382455       11.4373867697       11.3920206113
  C        13.7930713080       12.5185462099       10.7193385015
  C        14.2539701303        9.6247226871       13.1228858758
  C        14.2525629249        9.6445986771       14.5447347375
  C        13.7426270878       10.7535248857       15.2918100316
  C        22.5124749573        3.2439389711        21.743390983738
  C        23.2291079014        4.3478503206        21.044699768138
  C        24.2261044258        4.0652259762        20.099288306538
  C        24.8555984737        5.1031031519        19.417300875738
  C        24.5037291096        6.4455339732        19.660771620138
  C        23.5350917415        6.7197018863        20.643407145038
  C        22.9008654626        5.6836097626        21.323824193338
  C        25.1116967156        7.5502808786        18.884886075238
  C        25.0829581370        7.5431155124        17.463555618038
  C        24.3776862530        6.5455287985        16.718063375538
  C        38.2985150089       31.9288153717        21.842446828538
  C        37.5572618920       30.8403153770        21.141497801938
  C        36.5910851963       31.1478524074        20.171250998838
  C        35.9612920043       30.1301838776        19.460226859438
  C        36.2828307100       28.7791777657        19.696392988938
  C        37.2182629716       28.4789265650        20.704514409038
  C        37.8519274722       29.4956926956        21.415070354438
  C        35.6723820221       27.6923908117        18.896776397038
  C        35.7080838331       27.7116071272        17.475110842338
  C        36.4226023038       28.7118758456        16.742954067638
  C        25.7071729969        8.6120649502        16.743419007838
  C        25.7109812791        8.6238817756        19.555499603338
  C        38.3304522352       31.9627224649       10.1597736462
  C        37.6103778844       30.8936065164       10.9104732295
  C        36.6810392679       31.2110920600       11.9130972878
  C        36.0654487384       30.1995212308       12.6478860759
  C        36.3638781155       28.8442325837       12.4032256106
  C        37.2746481717       28.5365348256       11.3738173310
  C        37.8926613654       29.5448578458       10.6404978399
  C        35.7413006970       27.7506987410       13.1850627736
  C        35.7428119699       27.7418905880       14.6074167815
  C        36.4386763056       28.7266997618       15.3765325131
  C        46.1353504550       26.6207357106       15.2815772355
  C        46.0878804745       26.5802254365       12.4737001780
  C        22.4606455228        3.2558829022       10.2578760350
  C        23.1539669792        4.3643475220       10.9813310228
  C        24.1561776286        4.0780262993       11.9219713969
  C        24.7836240017        5.1079280166       12.6186164214
  C        24.4290680866        6.4538733526       12.3973234005
  C        23.4499613043        6.7334579018       11.4251303079
  C        22.8178559119        5.7037817395       10.7289251085
  C        25.0605343603        7.5513139136       13.1717452560
  C        25.0570860449        7.5431701833       14.5945845169
  C        24.3636281939        6.5464934070       15.3514637875
  C        26.6184906373       17.8598673491        21.773316592538
  C        25.3097812469       17.9083342847        21.050565321438
  C        25.0574166223       18.9003638241        20.089951728338
  C        23.8448495648       18.9235805425        19.403239428638
  C        22.8488891992       17.9575508182        19.653897376638
  C        23.0982521651       16.9884421742        20.644064485038
  C        24.3123657157       16.9601820411        21.329047225138
  C        21.5765952284       17.9440295619        18.888106791838
  C        21.5765376017       17.9228503495        17.465357202538
  C        22.7820074605       17.8007168907        16.704356288838
  C        34.4391794116       17.1964700632        21.913957946238
  C        35.7313955557       17.1562701313        21.165100902538
  C        35.9399152827       16.1926967527        20.166036602638
  C        37.1190129910       16.1895000393        19.425896586938
  C        38.1231204565       17.1469535152        19.668417836438
  C        37.9176595917       18.0909302251        20.692068628338
  C        36.7344369064       18.1009669661        21.427261354638
  C        39.3785855928       17.1599288812        18.884597803138
  C        39.3761568544       17.1821082394        17.463497147638
  C        38.1703544796       17.3111868925        16.704719245138
  C        20.3299585613       17.9395426891        16.756622202438
  C        20.3513412137       17.9455833307        19.569810924238
  C        34.4776431569       17.2524934338       10.1774451794
  C        35.7807656636       17.1875059393       10.9029154889
  C        35.9981840145       16.2063751405       11.8815199494
  C        37.1830574541       16.1951866712       12.6118636336
  C        38.1787768565       17.1640282002       12.3814133971
  C        37.9678123560       18.1207021640       11.3714289068
  C        36.7801104181       18.1373634195       10.6447546490
  C        39.4251145182       17.1848943512       13.1772909967
  C        39.3999747179       17.1952562738       14.5979089870
  C        38.1815644784       17.3154515111       15.3381629006
  C        35.1005072653       26.6660289570       15.3062568352
  C        35.1435782223       26.6874493655       12.4969140447
  C        26.5703225823       17.8275410204       10.3239661971
  C        25.2528823317       17.8783207963       11.0262998158
  C        24.9880194741       18.8887075092       11.9629289980
  C        23.7711913039       18.9161742161       12.6386531170
  C        22.7896594672       17.9334991983       12.4001599603
  C        23.0478421727       16.9491979247       11.4290936856
  C        24.2657348736       16.9195130123       10.7522292065
  C        21.5269290871       17.9157341704       13.1747966028
  C        21.5510818751       17.9075634526       14.5963410143
  C        22.7698641372       17.7938194554       15.3380457202
  C        14.0466332819       17.8292683776       10.2886777550
  C        15.3506169853       17.8876899546       11.0136246417
  C        15.6050490032       18.8903962691       11.9624097038
  C        16.8136551788       18.9126248156       12.6556291385
  C        17.8020884883       17.9351373123       12.4221384577
  C        17.5524912702       16.9569286102       11.4410028113
  C        16.3432314159       16.9299479157       10.7494221181
  C        19.0709135114       17.9199363075       13.1911484344
  C        19.0696786949       17.9171586406       14.6136060484
  C        17.8628907349       17.8160072171       15.3748639514
  C        46.8071246546       17.2208711764       10.1598093107
  C        45.5194860961       17.1671209129       10.9087811368
  C        45.3115659323       16.1955959248       11.8997072393
  C        44.1316892125       16.1882759767       12.6387234160
  C        43.1315200011       17.1525014336       12.4072346867
  C        43.3368977016       18.1038207162       11.3901167271
  C        44.5173417913       18.1152281204       10.6525678816
  C        41.8790238603       17.1735956963       13.1948315854
  C        41.8833940710       17.1745655517       14.6162903157
  C        43.0917668171       17.2645656723       15.3765463503
  C        20.3165629803       17.9305851905       15.3217107185
  C        20.2948383491       17.9021775095       12.5085786994
  C        46.7861608376       17.2313590956        21.880210323238
  C        45.4817719087       17.1286319542        21.167128362938
  C        45.2606630267       16.1359151670        20.200848070038
  C        44.0720960865       16.1166284919        19.475384395438
  C        43.0763887370       17.0869138726        19.700145640538
  C        43.2869060532       18.0477327581        20.706457994938
  C        44.4766376012       18.0736969745        21.426488300438
  C        41.8318438841       17.1203374928        18.901961448938
  C        41.8594889005       17.1458046358        17.481509154938
  C        43.0804309930       17.2485107549        16.742918552538
  C        46.1531719730       26.6371759769        16.716129920838
  C        46.1626366726       26.6561982106        19.525780139538
  C        14.0458173515       17.8320761052        21.698555461138
  C        15.3665482970       17.9076245616        21.008263282838
  C        15.6380957152       18.9225787485        20.078541460638
  C        16.8667982578       18.9612471317        19.423385153138
  C        17.8518573402       17.9842419538        19.672035096838
  C        17.5872232207       16.9984908333        20.640211561938
  C        16.3604535395       16.9591676192        21.298855979338
  C        19.1189690764       17.9610706139        18.902862437638
  C        19.0947674003       17.9368958059        17.481407601238
  C        17.8751717757       17.8248396048        16.740857988138
  C        28.8085724855       14.0920896905       10.3931682929
  C        28.1937785919       12.9191049110       11.0818047501
  C        28.9216888310       12.1665582999       12.0152821319
  C        28.3222616590       11.0914691174       12.6667100047
  C        26.9808983027       10.7445150215       12.4077368682
  C        26.2739857927       11.4773808180       11.4377471793
  C        26.8712047372       12.5530667494       10.7852388158
  C        26.3137207051        9.6631940162       13.1686323012
  C        26.3079320148        9.6862021512       14.5896903742
  C        26.8188331470       10.7956922702       15.3355268002
  C        32.1525911738       21.2710693217       10.1432022303
  C        32.7361310636       22.4425579499       10.8640733095
  C        31.9862140436       23.1135645359       11.8418535931
  C        32.5531156623       24.1548903463       12.5711532013
  C        33.8858173532       24.5507408301       12.3452620056
  C        34.6170994931       23.8988017129       11.3344529809
  C        34.0520719184       22.8542053219       10.6057347921
  C        34.5162052222       25.6212811645       13.1508655879
  C        34.5034757753       25.5889771736       14.5725074969
  C        33.9855682252       24.4750240308       15.3059484555
  C        25.6981618232        8.6086437254       15.3088045382
  C        25.6736365918        8.6147380863       12.4953031848
  C        32.0796785301       21.2042818042        21.867891415538
  C        32.6511124322       22.3646111612        21.120855746738
  C        31.9129584039       23.0198908602        20.123132290338
  C        32.4842146075       24.0606709005        19.392863618338
  C        33.8075852660       24.4765345821        19.640874542938
  C        34.5275949375       23.8339070608        20.666504467738
  C        33.9614000386       22.7896754233        21.392389394338
  C        34.4453748772       25.5643746211        18.862649876238
  C        34.4657984056       25.5606239416        17.440506649638
  C        33.9670298589       24.4618623488        16.672274068738
  C        40.6232782277       17.1555019777        16.756527035338
  C        40.6005928698       17.1457034695        19.565965355838
  C        28.7479099629       14.0662479356        21.810163401238
  C        28.1380533828       12.9179299255        21.072458837538
  C        28.8782151990       12.2164346665        20.108740190938
  C        28.2995907638       11.1591803876        19.410291883738
  C        26.9645590961       10.7769606057        19.651025939738
  C        26.2410976080       11.4660687644        20.642116401838
  C        26.8184122861       12.5240244400        21.342090493738
  C        26.3243197035        9.6854660870        18.878097424438
  C        26.3146643457        9.6976347201        17.456299228238
  C        26.8199407540       10.8024652364        16.701382215138
  C        18.1354420512        3.1811394246       10.3171807043
  C        17.4061877978        4.2783365102       11.0157814137
  C        16.3903673369        3.9999955562       11.9432076276
  C        15.7426615194        5.0399880737       12.6066822087
  C        16.0947157132        6.3837019334       12.3671033673
  C        17.0842004513        6.6532181783       11.4034336569
  C        17.7332730277        5.6158568634       10.7383943257
  C        15.4703616534        7.4913731352       13.1301572031
  C        15.4855070787        7.4905788972       14.5518797964
  C        16.1870122236        6.4969249519       15.3050527529
  C        42.9458291535       31.8595707979       10.0728564516
  C        43.6462403483       30.7718650151       10.8167915591
  C        44.5914590368       31.0932189441       11.8031534147
  C        45.1971374811       30.0876812913       12.5508619795
  C        44.8710075356       28.7345871687       12.3357635703
  C        43.9455397689       28.4202278362       11.3222257806
  C        43.3367442632       29.4253514653       10.5741408311
  C        45.4885441244       27.6552813385       13.1389691532
  C        45.4926098251       27.6808482181       14.5606616855
  C        44.8054796349       28.6888445417       15.3073140690
  C        14.8564902531        8.5630293039       15.2642637290
  C        14.8752407773        8.5632395858       12.4515583441
  C        42.9464633259       31.9616659101        21.798822284038
  C        43.6917755117       30.8855142911        21.085401614738
  C        44.6561381802       31.1914418531        20.112877557038
  C        45.2776974600       30.1718584535        19.395172095538
  C        44.9541667150       28.8215205518        19.633026300538
  C        44.0209836357       28.5238432326        20.644087788538
  C        43.3926817502       29.5406035211        21.356249612238
  C        45.5631409993       27.7241078528        18.847748268038
  C        45.5332353851       27.7173379914        17.426448037738
  C        44.8267980394       28.7074954095        16.673500300138
  C        35.0821045604       26.6511723888        16.741312361338
  C        35.0592947376       26.6181951207        19.551734288338
  C        18.1486230692        3.2470786860        21.696334011738
  C        17.4300253093        4.3438545390        20.987093284038
  C        16.4147168615        4.0525921298        20.063616139238
  C        15.7664132419        5.0832376883        19.388267605638
  C        16.1211780427        6.4284613318        19.610900304138
  C        17.1126906091        6.7118280043        20.568011518638
  C        17.7603710313        5.6829170878        21.247763558038
  C        15.4906573317        7.5241397326        18.838475794338
  C        15.4964398985        7.5074277347        17.417358454038
  C        16.1932039494        6.5057373078        16.670656943038
  H        10.6723275065       12.4653793273        19.894837677838
  H        11.6946039636       10.5505523444        18.652991044538
  H        15.3921511256       11.1694123219        20.761255614438
  H        14.3517307164       13.0721878363        22.006380352538
  H        13.3761968674       11.6311557512        17.191172892038
  H        50.3229163423       22.7483164051        19.976443708838
  H        49.3197838211       24.6228269085        18.670466474438
  H        45.6425487450       24.1615873617        20.853883368738
  H        46.6635233357       22.2905410964        22.162098600338
  H        47.6298890798       23.5759185259        17.236064597238
  H        14.8724511786        8.5884814474        20.598354091438
  H        50.2870167058       22.7025280582       12.0605878434
  H        49.2690388781       24.5754002664       13.3606431388
  H        45.6106620635       24.1095647012       11.1458088363
  H        46.6528598611       22.2541999806        9.8315027829
  H        47.6077474908       23.5518435639       14.7969090091
  H        40.6635582780       17.1585637843       11.4261222276
  H        48.6871229970       14.0950339520        23.789823667338
  H        10.6812894325       12.4662857144       12.0928751140
  H        11.6896535442       10.5243710285       13.2965977368
  H        15.3941236693       11.1598277403       11.2063965043
  H        14.3655819396       13.0881979822        9.9911615332
  H        13.3759121806       11.6221881971       14.7531542990
  H        47.9302574754       14.2184596755        9.7109865451
  H        47.7801394586       14.3739401799        22.485071759838
  H        49.0848137834       18.5528409216       10.8677319215
  H        10.4164071160       14.1342525919        7.9987631044
  H        24.4850630402        3.0260036907        19.909317237338
  H        25.6287703838        4.8841013630        18.684055074238
  H        23.2565188656        7.7533825869        20.837551113638
  H        22.1306920910        5.8856684769        22.064190388338
  H        23.8161180915        5.7893741544        17.258871912438
  H        36.3588830651       32.1920803254        19.975907907238
  H        35.2129627279       30.3729104523        18.708938579238
  H        37.4743233122       27.4386707854        20.894908048038
  H        38.5999586423       29.2711084086        22.171792178238
  H        36.9895694272       29.4571406051        17.293171416638
  H        25.7455677866        8.6072647430        20.643312409638
  H        36.4607756933       32.2572621550       12.1129969818
  H        35.3382513224       30.4522603542       13.4163684417
  H        37.5184790154       27.4942313420       11.1790632965
  H        38.6165430243       29.3114686538        9.8634234317
  H        37.0190522631       29.4828976749       14.8556406873
  H        46.1094774066       26.5877201205       11.3856712795
  H        44.6683213192       35.1162336670        23.803765436638
  H        24.4342582991        3.0397998442       12.0885428030
  H        25.5645688424        4.8789687795       13.3406170510
  H        23.1647416920        7.7680024186       11.2451235381
  H        22.0461559314        5.9169157098        9.9928239446
  H        23.7907149246        5.7916664230       14.8206696636
  H        44.9539484168       34.3904970324        9.6952637816
  H        44.9019690633       34.2068242216        22.480507964938
  H        40.6665627570       33.2095330240       10.8533114019
  H        23.1504078802        1.9579382601        8.0054265465
  H        25.8259822039       19.6457760932        19.897686648838
  H        23.6533628478       19.6997274388        18.665304072038
  H        22.3414461988       16.2333608626        20.846878522538
  H        24.5157895163       16.1979203340        22.077660526838
  H        23.7225078961       17.6810582497        17.234179667338
  H        35.1623536678       15.4547577301        19.982851623438
  H        37.2812431291       15.4341021189        18.660022106838
  H        38.6857358491       18.8376178779        20.883195842538
  H        36.5582125814       18.8433958547        22.202335510838
  H        37.2319510411       17.4358379953        17.237347210038
  H        20.3579726084       17.9860500841        20.657638201938
  H        35.2191365161       15.4696234304       12.0633406924
  H        37.3527189804       15.4311568707       13.3674343774
  H        38.7313627124       18.8742854127       11.1896770591
  H        36.5938502167       18.8925574715        9.8846962454
  H        37.2517796855       17.4422045936       14.7911765421
  H        35.1213487023       26.7164052554       11.4091872541
  H        28.5012072061       21.0695836002        23.952976286138
  H        25.7501886627       19.6439128218       12.1415957286
  H        23.5648825245       19.7034262028       13.3606051962
  H        22.2976258542       16.1844106625       11.2386115443
  H        24.4816821067       16.1476039127       10.0173662040
  H        23.7010118152       17.6690716154       14.7932435271
  H        29.0172378028       21.7113757902        9.7517174860
  H        29.1710232196       21.7303119589        22.619127008938
  H        32.1002407440       18.5877893838       10.9666934983
  H        27.3695098692       19.0168814692        8.0788686875
  H        14.8451707202       19.6478397989       12.1411587801
  H        17.0074178345       19.6962915218       13.3849145450
  H        18.3054962719       16.1946370165       11.2515702109
  H        16.1389774731       16.1613785211       10.0077684712
  H        16.9206032549       17.6983283044       14.8476640964
  H        46.0913661703       15.4602412525       12.0835042643
  H        43.9693384572       15.4273569643       13.3988978965
  H        42.5719906466       18.8559340984       11.2083955624
  H        44.6940315916       18.8636303554        9.8836790897
  H        44.0342826161       17.3775265099       14.8484438103
  H        20.2886021919       17.9313680970       11.4204086533
  H        46.0360302935       15.3951169329        20.019243048338
  H        43.9027589544       15.3474897490        18.724964190238
  H        42.5221727893       18.8004478157        20.886357177338
  H        44.6623621244       18.8351348071        22.179938170038
  H        44.0143061616       17.3479664963        17.288559252638
  H        46.1997236616       26.6828485104        20.613224610238
  H        52.7413347092       21.0626894635        8.1947155162
  H        14.8763353346       19.6748576823        19.886089984938
  H        17.0764410087       19.7511988734        18.705402465938
  H        18.3392561371       16.2379931226        20.840167574938
  H        16.1409534395       16.1850602023        22.030136786338
  H        16.9420401412       17.7140049034        17.284940037938
  H        52.3227968364       21.6734332128        22.283972171438
  H        52.0134627644       21.7022727040        9.4956131828
  H        49.0681090614       18.6078226446        21.193738972138
  H        13.2480403712       19.0160418561        23.967119855638
  H        29.9561722596       12.4372861951       12.2141999582
  H        28.8881012026       10.5065274963       13.3886400052
  H        25.2374031997       11.2191987439       11.2308372192
  H        26.3238272007       13.1399508618       10.0516577379
  H        27.1840990903       11.6631092491       14.7941835166
  H        30.9633378312       22.7935665273       12.0261072128
  H        31.9659841462       24.6754568964       13.3245573767
  H        35.6483776835       24.1952222674       11.1538854351
  H        34.6219168972       22.3247960997        9.8455335120
  H        33.6259204674       23.6108226004       14.7550297073
  H        25.6990950969        8.5981032960       11.4071174661
  H        30.8929590308       22.6976665326        19.926097453538
  H        31.9029626379       24.5700348697        18.627258208738
  H        35.5519369511       24.1425555232        20.865017022638
  H        34.5233159588       22.2735272628        22.167271462538
  H        33.5929744608       23.5869739737        17.196096732138
  H        40.5918906999       17.0996867325        20.653299077038
  H        32.5121679849       14.1425316639        8.2496109691
  H        29.9085526202       12.5137184165        19.926957188538
  H        28.8812760312       10.6106136501        18.672570956138
  H        25.2080097960       11.1837410165        20.834410103538
  H        26.2569214265       13.0721325490        22.095038043338
  H        27.1849070481       11.6750780984        17.235148145738
  H        33.3114615375       14.2306534874        22.458744273238
  H        33.4102396804       14.4071459110        9.6004040731
  H        32.1380264152       18.5165013612        21.192070135738
  H        30.2181150460       14.1871321138        8.0757873300
  H        16.1181991287        2.9635091195       12.1295337477
  H        14.9531270835        4.8206625564       13.3222701929
  H        17.3667880101        7.6860822622       11.2104375707
  H        18.5154156750        5.8185383919       10.0106654632
  H        16.7536638492        5.7396531314       14.7715448112
  H        44.8275395984       32.1403278345       11.9774997375
  H        45.9368028919       30.3414886235       13.3069820531
  H        43.6831787427       27.3781217181       11.1518276861
  H        42.6004615991       29.1900103810        9.8091482549
  H        44.2301414622       29.4366329327       14.7690279936
  H        14.8516731572        8.5466171704       11.3633189135
  H        44.8995145590       32.2341398329        19.921275660238
  H        46.0244505759       30.4131158461        18.641788040838
  H        43.7643346100       27.4840785708        20.835919963238
  H        42.6464434551       29.3178106590        22.114960913638
  H        44.2683413297       29.4704131210        17.208101106738
  H        35.0149983954       26.6269935387        20.639223312138
  H        36.6051917422       35.1342923589        8.1804788737
  H        16.1435523313        3.0130269066        19.893968140738
  H        14.9740163808        4.8564306328        18.678265859538
  H        17.3963713281        7.7472619247        20.744774696038
  H        18.5434043492        5.8933977587        21.972348436938
  H        16.7646896270        5.7555340722        17.209071493138
  H        36.2788426159       34.4824219747        22.262986032938
  H        36.3810389258       34.2091332299        9.4992265505
  H        40.5794680909       33.2020981384        21.143709246538
  H        17.4709770905        1.9479132717        23.963793461038
  H        29.4025342797       19.4783905202       12.6624560646
  H        30.0165471205       19.7526746176        19.632102463338
  H        31.8060108403       15.6869062767        19.591166902738
  H        31.2692756791       15.4753779974       12.4451973184
  H        28.2145767356       19.6255716908       14.8353983983
  H        29.2956008933       15.3320215927       14.4108629624
  H        32.0385717350       20.0055242306        17.709509281038
  H        33.0344254228       16.7419823589        17.426190517338
  H        28.7966989450       17.2677696435        17.325191885238
  H        32.3160612306       18.2687253204       14.8073633087
  H        18.8532101350        0.8690682967       12.3351622776
  H        40.5282167616       35.2288829974        19.941830707138
  H        42.3240424703       34.4188535287        19.580169524038
  H        22.0875347622        0.6921834303       12.3515560391
  H        11.5968488487       18.7127984368       12.3825937886
  H        52.2650200397       18.4310871767        19.667030471138
  H        49.2546691684       16.4769961549        19.574541954338
  H        10.1502983854       15.7981542028       12.2926848874
  H        50.8501557231       17.6925492233        19.943929337938
  H        10.0462224380       17.3945012074       12.0519136391
  H        20.2143530355        0.0022361717       12.0420166115
  H        39.1838576892       36.1244376906        19.676184684638
 Ni        30.9454721143       17.7273696289        18.822528916938
 Ni        30.9806974238       16.3841674129        16.069514114138