     569
 i =      189, E =     -4729.5278076801
  C        11.8587719781       14.0534593963        21.731370362538
  C        12.4562648021       12.8905644078        21.013089725838
  C        11.7046000730       12.1715892170        20.071424433538
  C        12.2810163296       11.1093968683        19.379096682738
  C        13.6216090431       10.7396201236        19.606832454438
  C        14.3547355924       11.4432347389        20.580307426938
  C        13.7818194436       12.5082048458        21.271802770438
  C        14.2611498305        9.6489481550        18.833438496038
  C        14.2563517902        9.6568262409        17.411736537038
  C        13.7432004074       10.7589597674        16.657833919138
  C        49.1268476049       21.2331573554        21.869515971038
  C        48.5501401624       22.4011057358        21.142475716938
  C        49.3001071212       23.0682620334        20.161305339438
  C        48.7331979317       24.1074129057        19.428104601838
  C        47.4027350240       24.5092747039        19.656861555738
  C        46.6718867019       23.8606128722        20.670607508338
  C        47.2343119657       22.8157094637        21.399975362438
  C        46.7724770456       25.5869508621        18.859572224538
  C        46.7615345082       25.5573693741        17.437803342638
  C        47.2615751653       24.4423551106        16.694259345838
  C        14.8602442166        8.5704672743        16.698458650438
  C        14.8920010824        8.5970277026        19.510078499838
  C        49.1132565900       21.2034907467       10.1453856641
  C        48.5279945376       22.3649539702       10.8723675846
  C        49.2671635057       23.0254576448       11.8654872401
  C        48.6908931601       24.0600524489       12.5969285273
  C        47.3605842461       24.4571086372       12.3585169989
  C        46.6403030116       23.8124928746       11.3346998895
  C        47.2137809023       22.7765466472       10.6029201696
  C        46.7220958826       25.5319944792       13.1496174664
  C        46.7338148090       25.5282817517       14.5713283358
  C        47.2493423182       24.4291056158       15.3277043295
  C        40.6137652936       17.0726127024       15.3048614850
  C        40.6124337533       17.0790154405       12.4939727313
  C        11.8829780238       14.0865044815       10.2855442050
  C        12.4722409023       12.9107094668       10.9897334361
  C        11.7147744231       12.1775813157       11.9159612139
  C        12.2813538867       11.0951124639       12.5843500693
  C        13.6201450173       10.7212801512       12.3524512578
  C        14.3580658283       11.4367953637       11.3915610878
  C        13.7926610880       12.5179879229       10.7188882452
  C        14.2537250964        9.6245031009       13.1228561469
  C        14.2524323673        9.6444599325       14.5446974940
  C        13.7426239047       10.7534266727       15.2917888815
  C        22.5128017745        3.2438982621        21.742248572138
  C        23.2306982400        4.3462079377        21.040890434038
  C        24.2264867201        4.0598280337        20.095148563638
  C        24.8594728936        5.0947485955        19.411614321238
  C        24.5125620047        6.4388500912        19.653252997838
  C        23.5441326237        6.7166710064        20.635391931538
  C        22.9066342923        5.6834673076        21.317621397138
  C        25.1258362212        7.5420643087        18.878359374338
  C        25.1039070495        7.5353929811        17.456425817038
  C        24.4035844419        6.5376717926        16.706547290238
  C        38.2979718546       31.9274812434        21.841385271538
  C        37.5568178737       30.8388346701        21.139643151438
  C        36.5929615590       31.1458014301        20.166579891838
  C        35.9630551758       30.1280345961        19.455243862438
  C        36.2811755649       28.7764083551        19.693394568538
  C        37.2140917460       28.4769761271        20.704395546138
  C        37.8481442880       29.4936928575        21.415079165338
  C        35.6719965419       27.6878134960        18.893832398238
  C        35.7153286668       27.7011273452        17.472096289738
  C        36.4288730527       28.7016100459        16.739363244338
  C        25.7296390028        8.6058266197        16.739508459438
  C        25.7240344891        8.6147551238        19.551805148638
  C        38.3305959803       31.9605981714       10.1602747525
  C        37.6149915355       30.8868945184       10.9092480242
  C        36.6826306662       31.1948001320       11.9121214009
  C        36.0745769012       30.1766533268       12.6446172195
  C        36.3838039975       28.8235401656       12.3990340983
  C        37.2967779583       28.5256231370       11.3685357428
  C        37.9065583308       29.5402123369       10.6370314192
  C        35.7711853938       27.7239449593       13.1809338346
  C        35.7656936416       27.7197707663       14.6036113332
  C        36.4513102403       28.7116950730       15.3729114451
  C        46.1356777162       26.6208261867       15.2815043973
  C        46.0880191981       26.5803176511       12.4736057253
  C        22.4657599276        3.2568854136       10.2575736663
  C        23.1703913180        4.3637046472       10.9763555117
  C        24.1781056415        4.0731382828       11.9102478789
  C        24.8163204911        5.0996596003       12.6031032440
  C        24.4681488497        6.4481228688       12.3861973443
  C        23.4838582518        6.7319781596       11.4201937446
  C        22.8412090195        5.7056547712       10.7273835525
  C        25.1052519163        7.5429442808       13.1628460092
  C        25.0939380836        7.5354351833       14.5862227445
  C        24.3971356959        6.5385504802       15.3396825412
  C        26.6124317559       17.8604226034        21.766409873338
  C        25.3063981309       17.9143864748        21.045792284838
  C        25.0451877799       18.9162191308        20.097388853238
  C        23.8326634966       18.9367476745        19.411013247538
  C        22.8448494893       17.9604146265        19.652360430538
  C        23.1013872369       16.9827990435        20.632377569838
  C        24.3159977393       16.9555541588        21.315351585038
  C        21.5730405862       17.9455096228        18.886330210938
  C        21.5750361490       17.9256217998        17.463738774838
  C        22.7817207846       17.8059535933        16.704337861738
  C        34.4425894829       17.1937388931        21.913981236338
  C        35.7374750057       17.1449303735        21.171309721838
  C        35.9557425951       16.1570013899        20.198051738138
  C        37.1348546125       16.1434018985        19.458361955038
  C        38.1308812182       17.1160108159        19.671813028538
  C        37.9173201744       18.0844901028        20.671151930638
  C        36.7343205174       18.1036967589        21.407760901438
  C        39.3824637989       17.1209113200        18.878825558038
  C        39.3699716880       17.1123194092        17.456833622338
  C        38.1573571511       17.2162608062        16.705672707738
  C        20.3288835151       17.9405721358        16.754348720338
  C        20.3480281536       17.9447228427        19.567935720838
  C        34.3792969099       17.2127488723       10.2632063449
  C        35.6888367909       17.1104571905       10.9695315146
  C        35.9166445359       16.1224501584       11.9398189878
  C        37.1212693271       16.0884477605       12.6380913052
  C        38.1275562751       17.0425165871       12.3884132061
  C        37.9070243078       18.0012805835       11.3818884944
  C        36.7035009413       18.0382581575       10.6840060829
  C        39.3855793775       17.0617277680       13.1683591790
  C        39.3716026731       17.0824297836       14.5898760458
  C        38.1583203805       17.2009373231       15.3391879693
  C        35.1276845701       26.6419023908       15.3036573863
  C        35.1887712929       26.6508419564       12.4938468812
  C        26.5708621196       17.8287757984       10.3199458702
  C        25.2548952762       17.8741912488       11.0250785486
  C        24.9860458968       18.8884505472       11.9566171179
  C        23.7695847487       18.9144272523       12.6330600828
  C        22.7918505240       17.9267073532       12.3997998161
  C        23.0540114814       16.9379394981       11.4344168996
  C        24.2718704491       16.9094540189       10.7572077271
  C        21.5284092719       17.9101111221       13.1736392037
  C        21.5517951387       17.9060773223       14.5952123987
  C        22.7702498027       17.7965370242       15.3379783159
  C        14.0466597333       17.8292714001       10.2882440708
  C        15.3512295240       17.8870695528       11.0124828013
  C        15.6079799082       18.8908687756       11.9594186973
  C        16.8171665905       18.9121157137       12.6517257602
  C        17.8036866974       17.9324816727       12.4191380384
  C        17.5518630153       16.9532015891       11.4397333946
  C        16.3420996510       16.9273183993       10.7490087967
  C        19.0724167701       17.9161235351       13.1882425481
  C        19.0703355957       17.9154084839       14.6106409908
  C        17.8629941928       17.8151119383       15.3711988328
  C        46.7993159341       17.2144056089       10.1547672205
  C        45.5010383164       17.1388265229       10.8894243347
  C        45.2944375707       16.1534792628       11.8676625006
  C        44.1078950652       16.1213544539       12.5963462260
  C        43.0948453576       17.0740947811       12.3705753963
  C        43.2969825453       18.0367235515       11.3626533165
  C        44.4849004360       18.0729432795       10.6349011712
  C        41.8421305163       17.0766694702       13.1640254931
  C        41.8559096515       17.0858051434       14.5869235421
  C        43.0687198771       17.1923482642       15.3382925213
  C        20.3166503609       17.9299538321       15.3195502850
  C        20.2968284391       17.8955720590       12.5065175828
  C        46.7866704582       17.2341459689        21.874258744938
  C        45.4877497309       17.1344819142        21.148985793038
  C        45.2716509599       16.1379910741        20.184976822138
  C        44.0860895989       16.1130018215        19.454391883838
  C        43.0866743009       17.0818588719        19.670086422138
  C        43.2950337210       18.0509655350        20.669381539738
  C        44.4814182390       18.0818816072        21.395519187238
  C        41.8373003524       17.0982855239        18.877473060538
  C        41.8537142846       17.0960999684        17.455952106438
  C        43.0676934859       17.1942107965        16.705256860838
  C        46.1534309755       26.6372082186        16.716060939838
  C        46.1624367383       26.6560338994        19.525709040538
  C        14.0450661595       17.8316779184        21.698261423038
  C        15.3651105739       17.9064404140        21.006620878638
  C        15.6362130337       18.9218323888        20.077314321138
  C        16.8643870162       18.9603864051        19.421229117738
  C        17.8490277364       17.9827913716        19.668841582938
  C        17.5846700623       16.9962015514        20.636196567338
  C        16.3584331415       16.9570522080        21.295752079038
  C        19.1162121094       17.9604670576        18.900032102538
  C        19.0932650838       17.9370970994        17.478538807138
  C        17.8741606325       17.8247231436        16.737210238738
  C        28.7979160054       14.1219090608       10.4008571180
  C        28.2079026222       12.9400328801       11.0916249176
  C        28.9314349528       12.2228889210       12.0565116494
  C        28.3456419437       11.1362244511       12.7025701586
  C        27.0225665557       10.7439460429       12.4111073948
  C        26.3235338686       11.4430574961       11.4102779496
  C        26.9065603493       12.5275737703       10.7609693058
  C        26.3592173631        9.6568456853       13.1677454721
  C        26.3387458336        9.6825704111       14.5890450631
  C        26.8294783650       10.7986804237       15.3384826574
  C        32.1838869448       21.2371516289       10.1407944494
  C        32.7824631860       22.4001867109       10.8618294315
  C        32.0329556512       23.0836914663       11.8322089694
  C        32.6039153208       24.1213210848       12.5626836813
  C        33.9411018198       24.5062907348       12.3445748862
  C        34.6733259956       23.8426302439       11.3417502170
  C        34.1046314153       22.7988325083       10.6132432224
  C        34.5670089459       25.5817945776       13.1489075878
  C        34.5441085013       25.5564157816       14.5710591896
  C        34.0282402631       24.4428988982       15.3065891177
  C        25.7290860972        8.6021732434       15.3044126249
  C        25.7258503123        8.6050874731       12.4908714282
  C        32.0786628589       21.1936419224        21.858908890738
  C        32.6452304524       22.3595833997        21.118469806938
  C        31.9162660112       22.9993321692        20.104135208638
  C        32.4886329310       24.0418574796        19.376870883838
  C        33.8039966067       24.4729646060        19.641619076238
  C        34.5131278645       23.8464554608        20.685030290638
  C        33.9459936817       22.8019233989        21.409170102838
  C        34.4470134660       25.5571707509        18.861606025538
  C        34.4818961399       25.5443298862        17.439152073038
  C        33.9975492293       24.4375337110        16.673042484338
  C        40.6120632464       17.0830893243        16.739973672938
  C        40.6101405002       17.1298952368        19.550274829438
  C        28.7470449816       14.0672576528        21.808388366638
  C        28.1422188997       12.9163983724        21.073410723738
  C        28.8775989624       12.2322340484        20.093458599838
  C        28.3026810980       11.1718131756        19.397025448338
  C        26.9758237203       10.7702296007        19.652946386138
  C        26.2580979416       11.4427708061        20.659880324738
  C        26.8318157012       12.5027506586        21.359527991938
  C        26.3376373033        9.6788782454        18.877984065038
  C        26.3291014837        9.6937119260        17.455919105938
  C        26.8236544230       10.8053281517        16.704138554938
  C        18.1355261765        3.1808948303       10.3171239786
  C        17.4060937767        4.2781706966       11.0156272063
  C        16.3902786196        3.9997660202       11.9430293092
  C        15.7425061849        5.0397098003       12.6065528077
  C        16.0944704601        6.3834430762       12.3670215549
  C        17.0839314169        6.6530160828       11.4033505879
  C        17.7330758948        5.6157073763       10.7382714403
  C        15.4701141618        7.4911214097       13.1301168006
  C        15.4853463531        7.4904082208       14.5518427702
  C        16.1868333264        6.4967434057       15.3050139776
  C        42.9457413873       31.8595218066       10.0728315722
  C        43.6461260792       30.7718216718       10.8168384584
  C        44.5916478003       31.0931872082       11.8028931130
  C        45.1973788202       30.0876696119       12.5505852208
  C        44.8709669891       28.7346044487       12.3357536202
  C        43.9451163053       28.4202216343       11.3225796371
  C        43.3362691869       29.4253380573       10.5745139442
  C        45.4886635081       27.6553322070       13.1389150384
  C        45.4928348544       27.6808988910       14.5606153911
  C        44.8056599989       28.6888691271       15.3072624045
  C        14.8564280756        8.5629259894       15.2642266735
  C        14.8749024510        8.5629494042       12.4515528760
  C        42.9463654048       31.9615842917        21.798751984538
  C        43.6915852569       30.8854009264        21.085233820938
  C        44.6564878856       31.1912763780        20.113236771838
  C        45.2780343027       30.1716793640        19.395526658438
  C        44.9539529745       28.8213951280        19.632901167838
  C        44.0200985489       28.5237405992        20.643327249438
  C        43.3918042429       29.5405260742        21.355468863738
  C        45.5630654612       27.7239918065        18.847670523838
  C        45.5333647659       27.7172991207        17.426370601738
  C        44.8269557803       28.7074891482        16.673447950838
  C        35.0988094074       26.6342857494        16.739030875938
  C        35.0543143356       26.6162737909        19.549228867838
  C        18.1488481980        3.2469235917        21.696516479938
  C        17.4302700379        4.3438348519        20.987207698338
  C        16.4148283842        4.0525493821        20.063895536738
  C        15.7665052064        5.0831640277        19.388477399738
  C        16.1213695930        6.4283867669        19.610941146338
  C        17.1130069115        6.7117891111        20.567925748838
  C        17.7606970272        5.6828916124        21.247729273338
  C        15.4907769885        7.5240604031        18.838491070338
  C        15.4964972630        7.5073760834        17.417345509738
  C        16.1931177990        6.5055919842        16.670622909738
  H        10.6724612126       12.4656573716        19.894378116338
  H        11.6947632571       10.5508696670        18.652564811738
  H        15.3917927358       11.1687238635        20.762026988438
  H        14.3513297169       13.0714756133        22.007164277838
  H        13.3762852411       11.6311264943        17.191140549438
  H        50.3227600560       22.7481187631        19.976432927538
  H        49.3196710374       24.6225656830        18.670439696938
  H        45.6425004127       24.1616274229        20.853986837738
  H        46.6633798539       22.2907230149        22.162304467638
  H        47.6302062964       23.5759870710        17.235892227138
  H        14.8724949794        8.5883238847        20.598388923338
  H        50.2871219204       22.7024324631       12.0605670499
  H        49.2692713898       24.5753511841       13.3605478396
  H        45.6110325175       24.1100428447       11.1453899606
  H        46.6530068269       22.2546394282        9.8311507477
  H        47.6082469353       23.5520399815       14.7968081974
  H        40.6109533331       17.0423279275       11.4061573467
  H        48.6871361088       14.0950948502        23.789817226538
  H        10.6813141087       12.4666534212       12.0934038870
  H        11.6895823907       10.5247188239       13.2970614350
  H        15.3934826408       11.1588940181       11.2055690924
  H        14.3650486830       13.0873207185        9.9903675603
  H        13.3758873021       11.6220883781       14.7531704621
  H        47.9301607308       14.2188669726        9.7110110264
  H        47.7799658720       14.3737159491        22.485224464038
  H        49.0823637136       18.5517364264       10.8669854468
  H        10.4161181461       14.1343890330        7.9989256097
  H        24.4824552030        3.0196275792        19.906487119938
  H        25.6323623962        4.8717090310        18.679274805238
  H        23.2685297319        7.7513846583        20.828358436138
  H        22.1373354757        5.8893288179        22.057915494938
  H        23.8397749931        5.7807622063        17.244030655638
  H        36.3622746008       32.1899921806        19.969105391638
  H        35.2168093499       30.3715767281        18.702136314838
  H        37.4679464120       27.4366509715        20.897272115638
  H        38.5939291190       29.2681549989        22.173758392238
  H        36.9894237347       29.4519809141        17.289206433238
  H        25.7564806762        8.5956831101        20.639663846338
  H        36.4536413911       32.2386924254       12.1144394131
  H        35.3450073939       30.4227038951       13.4130282497
  H        37.5495149242       27.4858357712       11.1717053686
  H        38.6321023236       29.3133592626        9.8596308057
  H        37.0298735697       29.4695112806       14.8523884847
  H        46.1094338747       26.5878108090       11.3855701788
  H        44.6682049062       35.1160512043        23.803755516838
  H        24.4520226206        3.0335521726       12.0754736059
  H        25.6001729879        4.8649700439       13.3201504947
  H        23.2019015998        7.7677917239       11.2422923879
  H        22.0658578325        5.9243913978        9.9966705488
  H        23.8280681665        5.7828503203       14.8060324392
  H        44.9534760462       34.3901555517        9.6950603271
  H        44.9014199636       34.2066895763        22.480426453638
  H        40.6658875492       33.2090894832       10.8531985511
  H        23.1509375544        1.9575460888        8.0050410387
  H        25.8019866129       19.6753679449        19.913094441738
  H        23.6353772307       19.7186713377        18.680778716938
  H        22.3501150969       16.2202524060        20.827526744638
  H        24.5258134989       16.1859372912        22.054479286638
  H        23.7229343218       17.6896244847        17.233975658238
  H        35.1850397126       15.4088660708        20.029470249238
  H        37.3005426019       15.3699891727        18.711502931338
  H        38.6773599550       18.8444440046        20.840829360438
  H        36.5534643920       18.8669872252        22.161144186338
  H        37.2206714896       17.3411898619        17.241527106638
  H        20.3539728393       17.9836119967        20.655838339538
  H        35.1366217150       15.3920224654       12.1421952705
  H        37.2954148540       15.3186845663       13.3867521891
  H        38.6767023091       18.7438924694       11.1819322524
  H        36.5151955694       18.7954545416        9.9267300716
  H        37.2216141125       17.3149770961       14.8014772159
  H        35.1717936350       26.6751855794       11.4058707209
  H        28.5021385704       21.0734123950        23.863389642738
  H        25.7435685276       19.6496940357       12.1296596652
  H        23.5608082534       19.7047446948       13.3509614294
  H        22.3068930720       16.1690591117       11.2483530388
  H        24.4904336755       16.1341720334       10.0267072399
  H        23.7025080051       17.6733900777       14.7946965776
  H        29.0082455960       21.7266557885        9.7330539242
  H        29.1923676376       21.7136908115        22.549726063338
  H        32.0192757752       18.6313068697       10.9870287982
  H        27.3908318335       19.0525357088        8.0542546996
  H        14.8494286420       19.6497908807       12.1376146040
  H        17.0127601267       19.6965511437       13.3796846234
  H        18.3032776490       16.1891599465       11.2511220854
  H        16.1358949095       16.1579317110       10.0087522772
  H        16.9210713945       17.6972207871       14.8434081119
  H        46.0818727221       15.4264658381       12.0521979036
  H        43.9524604676       15.3502969653       13.3478291328
  H        42.5244402656       18.7811107864       11.1809804874
  H        44.6550804641       18.8325507757        9.8753497115
  H        44.0070726431       17.3046386258       14.8027440924
  H        20.2913464458       17.9222196774       11.4183050646
  H        46.0476677985       15.3959827707        20.011270604838
  H        43.9207303291       15.3375917364        18.709559280638
  H        42.5294409578       18.8045648593        20.841842564838
  H        44.6623297934       18.8479979257        22.145471605538
  H        44.0055323124       17.3070905389        17.241571384938
  H        46.1992437682       26.6825985683        20.613155879838
  H        52.7412862242       21.0627252829        8.1946882321
  H        14.8746133251       19.6745886252        19.886103136138
  H        17.0740240426       19.7507892828        18.703721293638
  H        18.3364391768       16.2350966097        20.834859277238
  H        16.1388843530       16.1825561353        22.026606019738
  H        16.9406288613       17.7141886192        17.280701976638
  H        52.3228709559       21.6734603492        22.283999238838
  H        52.0137680053       21.7025277740        9.4957392514
  H        49.0681914270       18.6083281325        21.193753126638
  H        13.2475082032       19.0162573860        23.966988487838
  H        29.9497466243       12.5298466772       12.2864463571
  H        28.9095159232       10.5780998572       13.4468688776
  H        25.3015329329       11.1517611914       11.1766977206
  H        26.3628359598       13.0868408402       10.0036081492
  H        27.1832258145       11.6727624648       14.8005213142
  H        31.0049591895       22.7777160292       12.0096000557
  H        32.0160429586       24.6482351059       13.3110627145
  H        35.7080066595       24.1298668981       11.1658212597
  H        34.6767345084       22.2631916615        9.8591300312
  H        33.6797285013       23.5715506744       14.7594948679
  H        25.7595957020        8.5868599011       11.4029076698
  H        30.9066210274       22.6573998210        19.887336475538
  H        31.9149977795       24.5371222131        18.596467625538
  H        35.5312131992       24.1661047507        20.897496316838
  H        34.5015247769       22.2977548304        22.196279061738
  H        33.6258865976       23.5615732889        17.197103918638
  H        40.6102737914       17.1069044629        20.638372356638
  H        32.5061480410       14.1617925948        8.2487162197
  H        29.8995139122       12.5476135217        19.895200026838
  H        28.8812248381       10.6369398515        18.646936255438
  H        25.2312457664       11.1466821447        20.864454890238
  H        26.2734302551       13.0375729611        22.124166146438
  H        27.1728768253       11.6837342281        17.239055801138
  H        33.3084607772       14.2301697541        22.457576069238
  H        33.4037717443       14.3653831072        9.6161065558
  H        32.1121082286       18.4215686534        21.119888216538
  H        30.2049077205       14.1875079270        8.0946891836
  H        16.1181722325        2.9632533571       12.1293236074
  H        14.9529785344        4.8202569799       13.3221061022
  H        17.3664252389        7.6858944726       11.2103445340
  H        18.5151802486        5.8184085264       10.0105070438
  H        16.7532834434        5.7393316095       14.7715019988
  H        44.8278989473       32.1402834969       11.9770365881
  H        45.9372436573       30.3414681158       13.3065164374
  H        43.6823958575       27.3781495801       11.1525180628
  H        42.5996482546       29.1899822714        9.8098531209
  H        44.2302383871       29.4365947325       14.7689684307
  H        14.8512108149        8.5462155593       11.3633310676
  H        44.9002531521       32.2339452446        19.922000804438
  H        46.0251591325       30.4128894646        18.642499751938
  H        43.7628105243       27.4840409216        20.834616390738
  H        42.6449665037       29.3177610653        22.113594575538
  H        44.2684088891       29.4703225670        17.208073382138
  H        35.0016708759       26.6307590587        20.636274229838
  H        36.6052173982       35.1339781199        8.1806968994
  H        16.1435779131        3.0129807470        19.894383328038
  H        14.9740092363        4.8562829528        18.678592160538
  H        17.3967426540        7.7472382374        20.744565138238
  H        18.5437845220        5.8933651191        21.972260907338
  H        16.7644984500        5.7553051859        17.209056108638
  H        36.2789208423       34.4821199908        22.263102746338
  H        36.3807955211       34.2090734417        9.4996752206
  H        40.5786163972       33.2016546520        21.143860929138
  H        17.4713820710        1.9470660261        23.963979826938
  H        29.4304085818       19.7524041308       12.4603520555
  H        28.7907325093       18.7040339186        19.591551643438
  H        32.0841487483       15.9433676324        19.585941735738
  H        32.1103509924       16.6131440275       12.6393512783
  H        28.2366219339       18.6998838457       14.5144798160
  H        29.5423773477       14.7905916431       14.5803366123
  H        32.5066871848       17.4551126782        17.134444571138
  H        18.8535672884        0.8690918410       12.3352268778
  H        40.5280531978       35.2290519604        19.941960387338
  H        42.3233534171       34.4183309837        19.580729702838
  H        22.0878263345        0.6920731090       12.3514656393
  H        11.5969999031       18.7126433594       12.3824552533
  H        52.2650050565       18.4313052053        19.667319863438
  H        49.2550936951       16.4769382390        19.574326205438
  H        10.1503092418       15.7982467180       12.2925548794
  H        50.8502144491       17.6925018723        19.943979303238
  H        10.0460972187       17.3947225390       12.0519219660
  H        20.2148747878        0.0023310548       12.0420132380
  H        39.1835136970       36.1241633447        19.676081302538
 Ni        30.6954771315       17.6078453644        18.576815852338
 Ni        31.1977192896       15.9086208512        16.070426597838
 Ni        29.9307502563       17.8167282445       15.986945155338
 Ni        30.1824688681       17.8190941837       13.4928852608
  O        10.6499316809       14.3651357982        21.475639816538