     569
 i =      201, E =     -4729.5302810499
  C        11.8586293493       14.0535471133        21.731421331038
  C        12.4561013155       12.8905350774        21.013128337838
  C        11.7044815422       12.1718912042        20.071197638738
  C        12.2808177158       11.1096835544        19.378805833338
  C        13.6212623878       10.7395719058        19.606790709038
  C        14.3542994702       11.4428165188        20.580600760738
  C        13.7814664978       12.5077920598        21.272159522038
  C        14.2608058916        9.6489240912        18.833377099938
  C        14.2562098034        9.6568776171        17.411669240738
  C        13.7430977601       10.7590071894        16.657730470438
  C        49.1266865183       21.2331859757        21.869524050938
  C        48.5498987783       22.4010007058        21.142381944238
  C        49.3000159713       23.0684704297        20.161534235038
  C        48.7330978265       24.1076143957        19.428344600038
  C        47.4024916088       24.5091475265        19.656824297338
  C        46.6714481352       23.8601280401        20.670183059438
  C        47.2338805221       22.8152120963        21.399536393338
  C        46.7722854221       25.5868638799        18.859538016138
  C        46.7614416657       25.5573477038        17.437769629138
  C        47.2614577373       24.4423028867        16.694258517238
  C        14.8601626226        8.5705365275        16.698411561338
  C        14.8914718329        8.5968951376        19.510020269238
  C        49.1130518541       21.2033992023       10.1453468856
  C        48.5276900549       22.3647670467       10.8723970099
  C        49.2670030548       23.0256284721       11.8651688709
  C        48.6906455516       24.0601720931       12.5966074279
  C        47.3601356596       24.4567682521       12.3585706399
  C        46.6396535397       23.8116749281       11.3352097682
  C        47.2131915577       22.7757633649       10.6034172270
  C        46.7217046518       25.5317382214       13.1496182908
  C        46.7336182594       25.5281638044       14.5713245569
  C        47.2491808611       24.4290076134       15.3277045287
  C        40.6145045877       17.0609815329       15.3175123905
  C        40.6303320552       17.0953035830       12.5073714365
  C        11.8828492513       14.0865427152       10.2854525132
  C        12.4720878119       12.9105932706       10.9895806568
  C        11.7146252181       12.1776018960       11.9158989716
  C        12.2811291791       11.0951046509       12.5843321634
  C        13.6198412538       10.7211055233       12.3523179534
  C        14.3577147850       11.4363768847       11.3912099734
  C        13.7923660556       12.5175928670       10.7185208639
  C        14.2534580179        9.6243867621       13.1227738440
  C        14.2523318943        9.6444571808       14.5446189027
  C        13.7425232907       10.7534452954       15.2916816179
  C        22.5102865748        3.2440519995        21.742940278638
  C        23.2220201208        4.3505267732        21.042519766338
  C        24.2179377092        4.0724788990        20.094853740438
  C        24.8419145382        5.1136184724        19.412633937538
  C        24.4852852836        6.4544032569        19.658336086138
  C        23.5174087286        6.7240554668        20.642805271838
  C        22.8888260841        5.6847038038        21.323360870338
  C        25.0889500709        7.5616833054        18.882906852838
  C        25.0614360396        7.5543193928        17.461532057838
  C        24.3571594048        6.5560226064        16.716006934838
  C        38.2975293257       31.9269919116        21.841692846738
  C        37.5553740436       30.8379060805        21.141576675338
  C        36.5888653733       31.1440283639        20.170811430138
  C        35.9580829319       30.1257477566        19.460906946238
  C        36.2781866115       28.7742297813        19.697469657238
  C        37.2135697064       28.4756172640        20.706475041438
  C        37.8482303986       29.4928250505        21.416045544638
  C        35.6695216567       27.6853496659        18.897507410038
  C        35.7110504141       27.7007876711        17.475639671738
  C        36.4214724577       28.7037747148        16.743268207738
  C        25.6871674393        8.6222461278        16.741237745738
  C        25.6856310719        8.6368718686        19.553473053438
  C        38.3303925885       31.9602994721       10.1607814244
  C        37.6143573021       30.8874218395       10.9107107395
  C        36.6813542683       31.1968595219       11.9126506789
  C        36.0717972070       30.1800002214       12.6457807651
  C        36.3800198027       28.8262956133       12.4020579711
  C        37.2940499088       28.5268409792       11.3728277898
  C        37.9052987258       29.5401590730       10.6406015195
  C        35.7655474071       27.7274136320       13.1839726462
  C        35.7594465009       27.7227605863       14.6067856941
  C        36.4432111691       28.7153694832       15.3768061018
  C        46.1355941810       26.6207832854       15.2814739746
  C        46.0875565332       26.5799918656       12.4735764975
  C        22.4595654287        3.2553307962       10.2575091928
  C        23.1514255362        4.3646409382       10.9813224005
  C        24.1519446988        4.0794923335       11.9238955894
  C        24.7775809813        5.1104373488       12.6206015136
  C        24.4227882163        6.4557066816       12.3965524052
  C        23.4452530956        6.7341953794       11.4226706131
  C        22.8147304048        5.7034268198       10.7268095283
  C        25.0524386346        7.5542546169       13.1704885413
  C        25.0433262334        7.5498330203       14.5930812489
  C        24.3464500533        6.5552128262       15.3494217534
  C        26.6143777796       17.8524912685        21.774638293038
  C        25.3067470991       17.9069212244        21.055447550538
  C        25.0443911506       18.9158743937        20.114613594038
  C        23.8326027699       18.9397943437        19.426966677538
  C        22.8464484015       17.9592078916        19.658083529538
  C        23.1039915532       16.9743602191        20.630813559138
  C        24.3176263566       16.9444579765        21.316176013138
  C        21.5749039752       17.9493066158        18.890590105538
  C        21.5772297071       17.9390713634        17.467766291438
  C        22.7843326054       17.8267347368        16.708048005538
  C        34.4382298271       17.1939462958        21.942092272638
  C        35.7218346686       17.1370249302        21.183139775138
  C        35.9195855838       16.1554492489        20.199310212338
  C        37.0967405108       16.1323684970        19.455239291138
  C        38.1086774260       17.0876116985        19.674762726238
  C        37.9108730631       18.0521942669        20.681602279638
  C        36.7311710080       18.0820794382        21.422088684638
  C        39.3631879658       17.0840297060        18.885488763738
  C        39.3583738229       17.0833456133        17.463135320838
  C        38.1503417180       17.1931823326        16.705091101138
  C        20.3312269399       17.9556318360        16.757632813138
  C        20.3494090006       17.9445340569        19.571409417438
  C        34.4376419873       17.2390928880       10.1890237528
  C        35.7386965397       17.1365144545       10.9119521932
  C        35.9459451617       16.1475169094       11.8853350038
  C        37.1365709768       16.1106917807       12.6072122197
  C        38.1495085202       17.0626441233       12.3777583682
  C        37.9482178991       18.0252976343       11.3705811363
  C        36.7575164384       18.0662054762       10.6507015114
  C        39.3986923341       17.0731757435       13.1726773121
  C        39.3764193254       17.0788888914       14.5945872011
  C        38.1590454860       17.1896040856       15.3383166839
  C        35.1231046152       26.6434569029       15.3063489249
  C        35.1827515876       26.6547910566       12.4962883802
  C        26.5734284495       17.8295002370       10.3242839110
  C        25.2582950812       17.8806115868       11.0295488256
  C        24.9928330350       18.8960438013       11.9610119834
  C        23.7758223303       18.9267409127       12.6364173268
  C        22.7945129657       17.9425602857       12.4031624860
  C        23.0539739319       16.9522717162       11.4384017543
  C        24.2718289914       16.9191699998       10.7616554090
  C        21.5308757694       17.9289461021       13.1767744149
  C        21.5543457604       17.9269948641       14.5984539533
  C        22.7728933426       17.8208591264       15.3416611982
  C        14.0471647377       17.8298142067       10.2884521562
  C        15.3523469418       17.8901512406       11.0130466444
  C        15.6078274952       18.8966095910       11.9576089281
  C        16.8168898916       18.9216835658       12.6503061426
  C        17.8052889310       17.9431568548       12.4208522058
  C        17.5546065004       16.9607366502       11.4441578135
  C        16.3448860083       16.9312291740       10.7528921134
  C        19.0743714025       17.9311061419       13.1906343593
  C        19.0726256573       17.9321627681       14.6132737230
  C        17.8652688665       17.8314518661       15.3736675495
  C        46.8016415825       17.2169048403       10.1589454283
  C        45.5094012705       17.1471689178       10.9031418713
  C        45.3067349137       16.1637609434       11.8843223491
  C        44.1237124516       16.1337420478       12.6185943942
  C        43.1104733437       17.0868962420       12.3955233792
  C        43.3105239348       18.0501600175       11.3876691287
  C        44.4944766380       18.0839881079       10.6539032625
  C        41.8557505155       17.0855453590       13.1848106162
  C        41.8612058198       17.0810096898       14.6075648714
  C        43.0696180205       17.1805262038       15.3666215761
  C        20.3190184941       17.9484635615       15.3225748917
  C        20.2992035729       17.9114776545       12.5095123185
  C        46.7826612290       17.2305514513        21.877587891638
  C        45.4784315004       17.1204520434        21.161876824338
  C        45.2602363648       16.1167351834        20.205477195838
  C        44.0709860428       16.0821951225        19.480877746238
  C        43.0679353959       17.0481295431        19.694187052838
  C        43.2770369822       18.0224206104        20.688535437738
  C        44.4675055534       18.0631912064        21.408522334038
  C        41.8194227712       17.0607550343        18.897967114538
  C        41.8427092080       17.0665165354        17.476292901438
  C        43.0608877779       17.1705977949        16.733392566538
  C        46.1533894110       26.6372107816        16.716024248338
  C        46.1621964885       26.6559048438        19.525675853238
  C        14.0449133560       17.8317260007        21.698484550938
  C        15.3654277079       17.9069443639        21.007171698738
  C        15.6386521910       18.9260696369        20.082656661738
  C        16.8673813122       18.9656956218        19.427602264238
  C        17.8501750580       17.9852717027        19.671235561238
  C        17.5834672778       16.9943507491        20.633448278038
  C        16.3568265164       16.9544200136        21.292301020138
  C        19.1178639288       17.9650537885        18.903063607838
  C        19.0954226865       17.9485618818        17.481447126638
  C        17.8763516104       17.8388189865        16.739669052738
  C        28.8057801780       14.0912237524       10.3995411527
  C        28.1941246902       12.9155112448       11.0817639996
  C        28.9187546924       12.1678983859       12.0216817342
  C        28.3183026045       11.0926933053       12.6713527626
  C        26.9793688391       10.7420292514       12.4051967551
  C        26.2767926073       11.4687090485       11.4273518946
  C        26.8749497481       12.5440577714       10.7759377739
  C        26.3085042870        9.6641326599       13.1669446086
  C        26.2966576389        9.6915672481       14.5879037146
  C        26.8062659505       10.8022230298       15.3329367751
  C        32.1805360631       21.2379191620       10.1469522071
  C        32.7774486404       22.4013954841       10.8672461188
  C        32.0276861261       23.0843620508       11.8377089225
  C        32.5982767483       24.1234842581       12.5664661330
  C        33.9349403781       24.5097199537       12.3468451042
  C        34.6672548385       23.8458644963       11.3442464102
  C        34.0991871421       22.8008450293       10.6172381455
  C        34.5611520425       25.5853102246       13.1508461744
  C        34.5401623616       25.5582170323       14.5729752959
  C        34.0282053585       24.4422410217       15.3074791936
  C        25.6826670114        8.6163863665       15.3069083936
  C        25.6698543008        8.6147321584       12.4938168228
  C        32.0805165140       21.1904789843        21.863203631538
  C        32.6509922229       22.3518669701        21.120513862638
  C        31.9246399169       22.9833611927        20.099234482738
  C        32.4957347414       24.0267536560        19.372409836538
  C        33.8075593776       24.4657115596        19.643202316438
  C        34.5146545225       23.8447495924        20.691312640238
  C        33.9485300680       22.7997306086        21.415844946338
  C        34.4487119754       25.5517963541        18.864000527638
  C        34.4826111923       25.5410816029        17.441344142638
  C        34.0005029864       24.4340997661        16.673959427338
  C        40.6047797427       17.0583600952        16.752971863538
  C        40.5882252995       17.0882531073        19.563480815138
  C        28.7359413744       14.0650195442        21.809417256438
  C        28.1256452967       12.9231008938        21.067753123538
  C        28.8689778511       12.2053973046        20.117885661538
  C        28.2842756110       11.1526913503        19.417806687238
  C        26.9426538204       10.7876387641        19.647133309038
  C        26.2164907808       11.4908571411        20.626474370738
  C        26.7978450286       12.5466627879        21.325249444238
  C        26.2999897066        9.6970723342        18.875081846238
  C        26.2942874968        9.7081625017        17.453550536338
  C        26.8035196051       10.8112720610        16.698833158938
  C        18.1353168223        3.1807476399       10.3171961815
  C        17.4058864076        4.2779960710       11.0157914147
  C        16.3902903792        3.9996034421       11.9434242498
  C        15.7424902212        5.0395728013       12.6068901670
  C        16.0942341519        6.3833132503       12.3670949256
  C        17.0834644989        6.6528568642       11.4031782109
  C        17.7326232782        5.6155322327       10.7381596738
  C        15.4698934594        7.4910295335       13.1301136597
  C        15.4853074337        7.4904458440       14.5518276953
  C        16.1868687824        6.4968501767       15.3050188207
  C        42.9457227436       31.8594125916       10.0728561884
  C        43.6460137280       30.7717316431       10.8168052427
  C        44.5916784146       31.0930115239       11.8027694372
  C        45.1973521410       30.0874565458       12.5504353114
  C        44.8707467693       28.7344142496       12.3356873302
  C        43.9447492253       28.4200899429       11.3226261842
  C        43.3359737658       29.4252582929       10.5745827558
  C        45.4884023378       27.6551370417       13.1388657180
  C        45.4927601615       27.6808417776       14.5605613577
  C        44.8056725869       28.6888759497       15.3072027687
  C        14.8563754304        8.5629697458       15.2641807262
  C        14.8745509228        8.5627586589       12.4515104050
  C        42.9463350178       31.9614569703        21.798685208638
  C        43.6915215705       30.8853260860        21.085235385038
  C        44.6564121503       31.1912109049        20.113206576338
  C        45.2779359393       30.1715996825        19.395524062038
  C        44.9538156294       28.8213034185        19.632846837138
  C        44.0199315088       28.5236685426        20.643257772738
  C        43.3916387387       29.5404455985        21.355401147738
  C        45.5629507955       27.7239257892        18.847621740938
  C        45.5333521098       27.7173206004        17.426322933838
  C        44.8269947210       28.7075349164        16.673386934838
  C        35.0958889964       26.6336410612        16.741862958638
  C        35.0545752052       26.6116704395        19.552109717438
  C        18.1484285094        3.2468256476        21.696439983638
  C        17.4297644550        4.3436845654        20.987133960638
  C        16.4146601686        4.0523953539        20.063464715538
  C        15.7663173514        5.0830172554        19.388067660138
  C        16.1208433128        6.4282676379        19.610898490238
  C        17.1120747937        6.7116684131        20.568307089738
  C        17.7597578523        5.6827649214        21.248082113138
  C        15.4903818197        7.5239930478        18.838451394538
  C        15.4963499227        7.5074167059        17.417312119538
  C        16.1931060957        6.5057017814        16.670623771838
  H        10.6724474828       12.4662486477        19.893986942238
  H        11.6945460651       10.5513987229        18.652100722638
  H        15.3912013056       11.1679087083        20.762595165638
  H        14.3508224134       13.0707593445        22.007875339738
  H        13.3760505363       11.6311263167        17.191025483838
  H        50.3227718769       22.7485443966        19.976881465138
  H        49.3196210027       24.6229770852        18.670863988238
  H        45.6418810611       24.1607345111        20.853210172538
  H        46.6627447002       22.2898718915        22.161471215338
  H        47.6299951587       23.5759069253        17.235912483638
  H        14.8716625936        8.5880574267        20.598325136038
  H        50.2871195786       22.7029435229       12.0599617694
  H        49.2690729890       24.5757557492       13.3599959884
  H        45.6101564210       24.1087045493       11.1463135409
  H        46.6522339523       22.2534616718        9.8320449540
  H        47.6079401465       23.5518789849       14.7968078646
  H        40.6357197571       17.0680576143       11.4193419959
  H        48.6869561284       14.0950274743        23.789709581438
  H        10.6812239653       12.4668432772       12.0934403587
  H        11.6893360198       10.5248602877       13.2971492939
  H        15.3930395077       11.1582325220       11.2050651945
  H        14.3646391240       13.0867694587        9.9897864163
  H        13.3756436906       11.6220312442       14.7530346618
  H        47.9300218674       14.2184470582        9.7107794152
  H        47.7799586978       14.3737192645        22.484912241338
  H        49.0825120456       18.5519668532       10.8670018953
  H        10.4157158660       14.1344333114        7.9987256318
  H        24.4804769880        3.0344086616        19.903367003638
  H        25.6144894498        4.8984447734        18.677624363238
  H        23.2347224525        7.7563739110        20.838272266938
  H        22.1190808956        5.8826455028        22.065253994638
  H        23.7940211490        5.8010003382        17.256781556038
  H        36.3566314511       32.1879888719        19.973916563938
  H        35.2098474043       30.3688856304        18.709642082738
  H        37.4691115957       27.4355366922        20.898477973338
  H        38.5958268633       29.2675767708        22.173032774638
  H        36.9807783719       29.4548337294        17.293415358038
  H        25.7188192386        8.6211528771        20.641366767538
  H        36.4527647141       32.2410913549       12.1136437375
  H        35.3416340857       30.4276486939       13.4131192851
  H        37.5463154943       27.4866764192       11.1773529771
  H        38.6312975438       29.3116232121        9.8640969302
  H        37.0201070556       29.4748873865       14.8569264570
  H        46.1087522399       26.5872790610       11.3855350010
  H        44.6681307917       35.1161059763        23.803780456238
  H        24.4299259709        3.0414702483       12.0919290359
  H        25.5571996002        4.8828433470       13.3444531996
  H        23.1600121036        7.7684561421       11.2411911330
  H        22.0439837552        5.9148903037        9.9892441477
  H        23.7745554549        5.8000463578       14.8179913923
  H        44.9535240221       34.3901449951        9.6950285405
  H        44.9015775511       34.2067568956        22.480394251738
  H        40.6658486146       33.2085649184       10.8529585864
  H        23.1502019069        1.9575498295        8.0052894805
  H        25.7999811102       19.6782744407        19.938428877538
  H        23.6344946249       19.7279051243        18.703599330838
  H        22.3538649035       16.2089318873        20.819071274238
  H        24.5269473566       16.1701289672        22.050623129538
  H        23.7259774410       17.7120831510        17.237292846438
  H        35.1332483369       15.4244569560        20.024859279138
  H        37.2479486547       15.3634323337        18.700724585638
  H        38.6820552693       18.7999288794        20.854913938638
  H        36.5638676286       18.8414473074        22.182511272338
  H        37.2101988664       17.3133327274        17.236009573138
  H        20.3545947856       17.9766749294        20.659540573038
  H        35.1563181622       15.4241444320       12.0748823604
  H        37.2941577556       15.3400465891       13.3586309921
  H        38.7224718133       18.7673343327       11.1868549141
  H        36.5836363995       18.8276433421        9.8942032055
  H        37.2252098766       17.3069434204       14.7961098468
  H        35.1658062231       26.6796372046       11.4083186519
  H        28.5093637854       21.0791085592        23.867337961438
  H        25.7524147109       19.6549435353       12.1351779526
  H        23.5696410812       19.7185561033       13.3534092601
  H        22.3043732422       16.1857823992       11.2524705869
  H        24.4877721466       16.1428046767       10.0315390339
  H        23.7056517353       17.7018036541       14.7984909474
  H        29.0091918593       21.7210559669        9.7412312880
  H        29.1833379918       21.7142897336        22.537682525938
  H        32.0576799389       18.5688166316       11.0011515570
  H        27.4055250784       19.0608854853        8.0684481547
  H        14.8482011971       19.6549566243       12.1337019413
  H        17.0107120167       19.7086578755       13.3760212073
  H        18.3069056224       16.1970166799       11.2577091810
  H        16.1403108047       16.1594203663       10.0146460125
  H        16.9233610294       17.7144247735       14.8456446017
  H        46.0937910104       15.4354491315       12.0651726419
  H        43.9699993740       15.3624952267       13.3702006609
  H        42.5379405121       18.7952526408       11.2091809617
  H        44.6620942563       18.8426662177        9.8928799451
  H        44.0109386265       17.2977243905       14.8373333390
  H        20.2938939372       17.9358351008       11.4212317820
  H        46.0384920262       15.3772316064        20.031073415438
  H        43.9065524967       15.3023442417        18.740446746638
  H        42.5091384739       18.7736768801        20.861112409438
  H        44.6476344064       18.8346319391        22.153269832938
  H        43.9956688983       17.2791611457        17.275785206538
  H        46.1988329042       26.6823458286        20.613130054038
  H        52.7410696246       21.0626685210        8.1946728641
  H        14.8783019952       19.6808543739        19.894412859638
  H        17.0788127658       19.7591792509        18.714019775238
  H        18.3336192587       16.2307880824        20.828769315938
  H        16.1354098637       16.1769850622        22.019477364338
  H        16.9427674337       17.7275028426        17.282916775138
  H        52.3223194408       21.6732315601        22.284166979138
  H        52.0132537389       21.7021066341        9.4957139601
  H        49.0668316380       18.6074242776        21.194155805938
  H        13.2471733700       19.0166847061        23.967018648738
  H        29.9497252250       12.4445668515       12.2299706929
  H        28.8808956985       10.5122073667       13.3993280975
  H        25.2423220000       11.2068896296       11.2147468072
  H        26.3301402070       13.1275475656       10.0378968855
  H        27.1748460925       11.6684932444       14.7918864068
  H        31.0006729328       22.7757800930       12.0167117876
  H        32.0108280263       24.6504087941       13.3151779981
  H        35.7017406433       24.1334246134       11.1677768407
  H        34.6717118488       22.2642995649        9.8640951930
  H        33.6818652481       23.5708785242       14.7590616164
  H        25.6999999196        8.5947753477       11.4058406698
  H        30.9188228308       22.6328519600        19.877846635438
  H        31.9237139876       24.5172812969        18.587869798338
  H        35.5304859692       24.1689585494        20.907574424738
  H        34.5028832786       22.3002059906        22.206770534338
  H        33.6334357782       23.5557561470        17.197255180138
  H        40.5821106471       17.0612754099        20.651507559838
  H        32.5284784075       14.1121636185        8.2834972837
  H        29.9082815795       12.4786041739        19.949251261138
  H        28.8671000182       10.5930756701        18.689353387638
  H        25.1786246033       11.2205429615        20.809991832538
  H        26.2342501396       13.1056826416        22.068488147038
  H        27.1688175051       11.6846531078        17.231340194938
  H        33.3249075953       14.1537300140        22.435662853638
  H        33.4085796857       14.4116265851        9.6220095376
  H        32.0234592275       18.4690094481        21.040293165538
  H        30.2055587954       14.1397350484        8.1557538028
  H        16.1183355082        2.9630791034       12.1298913392
  H        14.9530894991        4.8201172764       13.3225846495
  H        17.3656861911        7.6857623608       11.2099219428
  H        18.5144812084        5.8181852132       10.0101211742
  H        16.7533404173        5.7394458958       14.7715198708
  H        44.8280948645       32.1400714640       11.9768786843
  H        45.9373113315       30.3411565639       13.3063050175
  H        43.6818419006       27.3780517466       11.1526441970
  H        42.5992386536       29.1899080382        9.8100339513
  H        44.2301965582       29.4365680211       14.7689211556
  H        14.8506309581        8.5458639769       11.3632948610
  H        44.9002301599       32.2338681327        19.921989656238
  H        46.0250571637       30.4127772378        18.642485293438
  H        43.7625520444       27.4839813044        20.834495095438
  H        42.6447873902       29.3176275067        22.113496588238
  H        44.2684006298       29.4703469757        17.207989122138
  H        35.0027961308       26.6248936876        20.639213875738
  H        36.6050432284       35.1338214834        8.1806746961
  H        16.1436715241        3.0128035838        19.893654807738
  H        14.9740448784        4.8561253378        18.677935359838
  H        17.3953949490        7.7471622874        20.745344255438
  H        18.5424775879        5.8932017922        21.973016088238
  H        16.7644548569        5.7554062894        17.209075144938
  H        36.2784359411       34.4822262826        22.263030382238
  H        36.3802626647       34.2092146720        9.4998077160
  H        40.5787247779       33.2015005303        21.144091041138
  H        17.4706451127        1.9465451840        23.963804693138
  H        29.2968789545       19.4791338252       12.6166829313
  H        28.7661626884       18.7460576626        19.723093293638
  H        30.7268907829       15.3790523964        19.784416998338
  H        31.2746181182       15.6288427694       12.5659506344
  H        28.0980565247       18.0212074674       14.3794753819
  H        29.4866615444       15.6858542310       14.8071900779
  H        32.6960409037       18.2727235158        17.123985235338
  H        18.8526070260        0.8687429851       12.3350907825
  H        40.5280083150       35.2291540291        19.942003470438
  H        42.3231234839       34.4180698520        19.580903074638
  H        22.0876295456        0.6919955799       12.3513599645
  H        11.5969740015       18.7127716724       12.3822864359
  H        52.2649246983       18.4310619431        19.667366500638
  H        49.2550917692       16.4769629159        19.574350098638
  H        10.1500449635       15.7982173451       12.2927995318
  H        50.8499803062       17.6925205093        19.944025025938
  H        10.0459158492       17.3945646328       12.0519879031
  H        20.2137209621        0.0020150142       12.0421155421
  H        39.1834632095       36.1243165479        19.676200680038
 Ni        30.8198284812       18.3778196189        18.573084269838
 Ni        31.1562539541       16.8197884689        15.989821492338
 Ni        29.3804045228       18.1314959647        16.404359374638
 Ni        30.1372539951       17.4529021234       13.3231196691
  O        10.6499077202       14.3651590567        21.475628140138