     576
 i =      107, E =     -4780.0575886938
  C        11.8587135818       14.0534899563        21.731343020638
  C        12.4561913216       12.8905928999        21.013088384738
  C        11.7046060579       12.1718048559        20.071220946838
  C        12.2810334860       11.1096397919        19.378871288338
  C        13.6215529062       10.7397088283        19.606781690238
  C        14.3545842033       11.4431366290        20.580463887538
  C        13.7816692440       12.5080868195        21.271977627938
  C        14.2611128180        9.6490717124        18.833386045638
  C        14.2564462021        9.6570374320        17.411690436538
  C        13.7433912056       10.7592087742        16.657774855838
  C        49.1267926089       21.2331972118        21.869425302538
  C        48.5501111623       22.4011295791        21.142458414138
  C        49.3000676986       23.0682432771        20.161238287638
  C        48.7331580309       24.1073901035        19.428052148438
  C        47.4027107234       24.5093016650        19.656852597238
  C        46.6718903944       23.8606949552        20.670656464838
  C        47.2343029703       22.8157846714        21.400015617438
  C        46.7724509543       25.5869458696        18.859539615738
  C        46.7615318085       25.5573309626        17.437773732938
  C        47.2615642077       24.4423040142        16.694243011938
  C        14.8603755606        8.5706946589        16.698426938638
  C        14.8918448771        8.5970914087        19.510039705138
  C        49.1131491173       21.2034763057       10.1452977920
  C        48.5278694963       22.3648816494       10.8722771997
  C        49.2670226251       23.0253771985       11.8654211235
  C        48.6907186588       24.0599283785       12.5968825737
  C        47.3603954652       24.4569618027       12.3584857865
  C        46.6401260192       23.8123461025       11.3346541813
  C        47.2136390241       22.7764498470       10.6028367003
  C        46.7219240261       25.5318455518       13.1495881607
  C        46.7337434885       25.5281721514       14.5712956120
  C        47.2492845463       24.4290144230       15.3276887633
  C        40.6179405691       17.0891528721       15.3133248872
  C        40.6331856526       17.1086171567       12.5032921356
  C        11.8829981461       14.0864849673       10.2854814265
  C        12.4722707759       12.9107131256       10.9896558728
  C        11.7148995515       12.1777177660       11.9160653798
  C        12.2815237820       11.0952901200       12.5844724884
  C        13.6202544574       10.7213471506       12.3523883258
  C        14.3580320953       11.4366619979       11.3912364085
  C        13.7925859095       12.5178147096       10.7185489640
  C        14.2538942912        9.6246448303       13.1228140973
  C        14.2526365865        9.6446849398       14.5446506070
  C        13.7428650564       10.7536819914       15.2917285856
  C        22.5129481121        3.2443734704        21.742871844438
  C        23.2305512636        4.3484108988        21.043530465138
  C        24.2262956355        4.0652911685        20.096841280338
  C        24.8569651961        5.1026119414        19.414651760138
  C        24.5080180919        6.4457380824        19.658869116038
  C        23.5405052368        6.7203514310        20.642662970038
  C        22.9050561983        5.6847580994        21.323219339738
  C        25.1161427149        7.5505234555        18.881968388238
  C        25.0844112810        7.5442833349        17.460437101938
  C        24.3786425592        6.5464743918        16.715745171738
  C        38.3010732815       31.9295917457        21.839441036438
  C        37.5678691748       30.8412552156        21.131821133738
  C        36.6082453856       31.1468952143        20.154474779038
  C        35.9875215394       30.1279098753        19.437309849338
  C        36.3110983228       28.7778249395        19.675844774738
  C        37.2403373139       28.4797137089        20.690345383538
  C        37.8655208712       29.4974192736        21.406175204538
  C        35.7067315052       27.6872170237        18.878024901538
  C        35.7430404788       27.7002577995        17.456737179038
  C        36.4526140745       28.7007327121        16.720523516638
  C        25.7064897984        8.6140476142        16.739293450738
  C        25.7176853856        8.6238862633        19.551066504738
  C        38.3288483380       31.9616289556       10.1569619936
  C        37.6080703291       30.8885712132       10.8997544455
  C        36.6802322965       31.1972818027       11.9063543215
  C        36.0704362960       30.1789377052       12.6364303741
  C        36.3737928700       28.8259989538       12.3837201179
  C        37.2794640511       28.5273681759       11.3472187785
  C        37.8915087988       29.5421649666       10.6184300886
  C        35.7648015685       27.7269861639       13.1676002042
  C        35.7729466400       27.7205236512       14.5897834437
  C        36.4663091003       28.7109453190       15.3539655725
  C        46.1356217710       26.6207258342       15.2814644515
  C        46.0878304147       26.5801560570       12.4735696909
  C        22.4602412248        3.2552510200       10.2572640348
  C        23.1536216723        4.3637030096       10.9804851919
  C        24.1558910595        4.0771076225       11.9208220379
  C        24.7835945016        5.1069946891       12.6170954922
  C        24.4289301191        6.4526836548       12.3952667678
  C        23.4495843065        6.7325692193       11.4235493051
  C        22.8172156681        5.7028937230       10.7277842763
  C        25.0605766197        7.5502770447       13.1687606589
  C        25.0563972547        7.5434531376       14.5914846370
  C        24.3634411640        6.5470663035       15.3491327762
  C        26.6192088074       17.8616436806        21.770693971638
  C        25.3156055976       17.9014683547        21.040285327638
  C        25.0497132359       18.9010298622        20.091201852838
  C        23.8363814090       18.9186440942        19.406105640938
  C        22.8510067014       17.9401811018        19.648686203138
  C        23.1131682261       16.9617502394        20.626208137838
  C        24.3289424737       16.9385959909        21.308345412238
  C        21.5769028693       17.9260600615        18.885753874238
  C        21.5769181702       17.9086799732        17.463196899338
  C        22.7827901560       17.7904753991        16.702228570638
  C        34.4212640512       17.2198982384        21.902492293638
  C        35.7107654993       17.1592761119        21.152477082238
  C        35.9075703301       16.1918210384        20.154811761538
  C        37.0914542368       16.1677831136        19.421972681038
  C        38.1097383111       17.1110887898        19.664164771738
  C        37.9133615961       18.0600626921        20.685294410438
  C        36.7281850682       18.0881972024        21.416958813938
  C        39.3659591087       17.1114420751        18.879399859038
  C        39.3617658289       17.1209777187        17.457480800638
  C        38.1549764728       17.2479547637        16.699214837038
  C        20.3302543623       17.9264528884        16.754957243238
  C        20.3523540384       17.9269558370        19.568498132338
  C        34.4390989230       17.2382921429       10.1891446073
  C        35.7403145696       17.1407328120       10.9138048435
  C        35.9511226923       16.1560848568       11.8904982173
  C        37.1421034561       16.1268855918       12.6122715027
  C        38.1520363390       17.0805837408       12.3768568274
  C        37.9475256378       18.0383096770       11.3662507708
  C        36.7556084522       18.0727962031       10.6482487843
  C        39.4021323028       17.0954334190       13.1692999976
  C        39.3803394166       17.1119443106       14.5904125478
  C        38.1637611775       17.2405651488       15.3326700462
  C        35.1400511062       26.6422190905       15.2932800179
  C        35.1740130621       26.6569237408       12.4840085006
  C        26.5698737147       17.8270444415       10.3232246776
  C        25.2544398894       17.8740648964       11.0280350910
  C        24.9858413823       18.8846892147       11.9634508957
  C        23.7684355732       18.9093440831       12.6380945120
  C        22.7897570545       17.9240778109       12.3993517534
  C        23.0516241126       16.9389997836       11.4300026205
  C        24.2702862719       16.9117036095       10.7545897901
  C        21.5265945860       17.9053544674       13.1731819217
  C        21.5510668402       17.8970444417       14.5946321604
  C        22.7701738727       17.7851534041       15.3359601659
  C        14.0461436318       17.8288777650       10.2886326517
  C        15.3502233780       17.8856902948       11.0137813990
  C        15.6064031832       18.8880412924       11.9623600389
  C        16.8152855926       18.9082882584       12.6552401263
  C        17.8018658873       17.9291147951       12.4213225657
  C        17.5504856794       16.9511272945       11.4405469744
  C        16.3410136520       16.9261632801       10.7493988817
  C        19.0708475206       17.9117177299       13.1898453804
  C        19.0697886937       17.9077000926       14.6122184979
  C        17.8630109683       17.8068813932       15.3736214315
  C        46.8028985543       17.2170636598       10.1580970194
  C        45.5104068748       17.1488072071       10.9013871545
  C        45.3058151195       16.1659165408       11.8823683111
  C        44.1225258065       16.1389975534       12.6161368464
  C        43.1124595702       17.0949295530       12.3918555369
  C        43.3141650940       18.0574116604       11.3838908688
  C        44.4983274200       18.0881026141       10.6508457645
  C        41.8582823735       17.0988644561       13.1809651178
  C        41.8644255903       17.0999533185       14.6034650179
  C        43.0733544069       17.1952669556       15.3623037793
  C        20.3166721239       17.9194435323       15.3201232527
  C        20.2946058530       17.8927454448       12.5069736467
  C        46.7829445426       17.2313500299        21.877275821038
  C        45.4786764594       17.1240524948        21.160477615538
  C        45.2587148382       16.1218775383        20.203018529238
  C        44.0699252879       16.0913749422        19.477267024638
  C        43.0696692480       17.0600255088        19.690736536538
  C        43.2802721827       18.0326030725        20.686332297638
  C        44.4701814674       18.0692604486        21.407364278838
  C        41.8218209372       17.0785385863        18.893557202038
  C        41.8457866258       17.0884748195        17.471937211438
  C        43.0645151207       17.1867796951        16.729115549138
  C        46.1534020406       26.6371416219        16.716016172138
  C        46.1623637689       26.6560123108        19.525661225138
  C        14.0455223167       17.8308770957        21.697957444938
  C        15.3663005798       17.9029212849        21.006591622738
  C        15.6411112332       18.9171805433        20.077148316038
  C        16.8701817970       18.9523175728        19.422267003738
  C        17.8523360009       17.9722958078        19.670769493338
  C        17.5843077682       16.9868739876        20.638291269238
  C        16.3572772168       16.9512275614        21.296725207238
  C        19.1196510952       17.9460950595        18.901760260238
  C        19.0953542944       17.9238009058        17.480208449338
  C        17.8754857597       17.8140172134        16.739634368338
  C        28.8110040578       14.0912945302       10.3909554920
  C        28.1977156930       12.9149175484       11.0749648972
  C        28.9244721040       12.1623296568       12.0091002942
  C        28.3239427385       11.0881661269       12.6610752660
  C        26.9826860028       10.7413981184       12.4011105030
  C        26.2777717022       11.4724783458       11.4283709125
  C        26.8760340552       12.5476510369       10.7759246721
  C        26.3137289699        9.6618948747       13.1631880348
  C        26.3051660523        9.6872342749       14.5840925064
  C        26.8112488784       10.7997766645       15.3283310628
  C        32.1773076234       21.2377460417       10.1500933040
  C        32.7701643444       22.4052047875       10.8670103021
  C        32.0244349929       23.0791466822       11.8463438358
  C        32.5953148418       24.1194329565       12.5730829822
  C        33.9276408122       24.5132126803       12.3421848027
  C        34.6551485714       23.8583919783       11.3303944723
  C        34.0866603589       22.8132584527       10.6048911038
  C        34.5577185643       25.5874668605       13.1430066982
  C        34.5488014058       25.5584565988       14.5648260993
  C        34.0384556120       24.4439052096       15.3028280791
  C        25.6965892419        8.6099453792       15.3046329982
  C        25.6746550238        8.6121934751       12.4910733029
  C        32.1294963003       21.2262595999        21.902986848838
  C        32.7001924808       22.3782798801        21.143944543138
  C        31.9615860334       23.0170990992        20.136572895138
  C        32.5317358033       24.0492431148        19.393505871038
  C        33.8528517135       24.4717415830        19.639814830938
  C        34.5741095697       23.8442504193        20.673782252038
  C        34.0099877079       22.8073559487        21.410658473038
  C        34.4888821654       25.5540791805        18.853490612038
  C        34.5119881654       25.5421753209        17.431618697838
  C        34.0196167812       24.4363126589        16.669390960438
  C        40.6080493035       17.0884771104        16.748310869838
  C        40.5904013832       17.1061567889        19.558420533338
  C        28.7470720006       14.0682047968        21.807436344038
  C        28.1377515777       12.9223573318        21.067286776638
  C        28.8695689650       12.2421128110        20.082059625438
  C        28.2928027741       11.1832755106        19.384602878838
  C        26.9674395407       10.7796850254        19.644847498938
  C        26.2525429730       11.4500346624        20.655218004538
  C        26.8282219941       12.5082193709        21.355918078938
  C        26.3274857176        9.6876200709        18.872791831738
  C        26.3128029143        9.7011384454        17.450805701038
  C        26.8116358882       10.8078597849        16.694074361338
  C        18.1354714714        3.1808852547       10.3171189246
  C        17.4061735030        4.2782264661       11.0158018159
  C        16.3902857040        3.9998849969       11.9431151443
  C        15.7425520868        5.0398827301       12.6066122503
  C        16.0946520041        6.3835698129       12.3670938058
  C        17.0842270912        6.6530903517       11.4035377644
  C        17.7333033218        5.6157221578       10.7384872270
  C        15.4703145894        7.4912935036       13.1301298299
  C        15.4855749804        7.4906531491       14.5518481193
  C        16.1870399382        6.4969774060       15.3050258963
  C        42.9457885020       31.8594994092       10.0728279953
  C        43.6461248308       30.7717844983       10.8168825174
  C        44.5918525147       31.0930828578       11.8027555455
  C        45.1975402000       30.0875281009       12.5504371625
  C        44.8708821053       28.7345056881       12.3357267413
  C        43.9447880330       28.4201744569       11.3227735757
  C        43.3359788610       29.4253404011       10.5747426102
  C        45.4885482508       27.6552061717       13.1388772679
  C        45.4927612885       27.6807832662       14.5605738605
  C        44.8055729198       28.6887615213       15.3071964756
  C        14.8566276014        8.5631687719       15.2642019042
  C        14.8750593984        8.5630664980       12.4515342568
  C        42.9463540734       31.9615421319        21.798750086438
  C        43.6915254854       30.8853440917        21.085160416338
  C        44.6564632106       31.1912123404        20.113204257238
  C        45.2779830467       30.1716104888        19.395475995438
  C        44.9538322482       28.8213413752        19.632814983938
  C        44.0198797766       28.5236856630        20.643140938938
  C        43.3916208323       29.5404843233        21.355297843538
  C        45.5629793316       27.7239426216        18.847602193138
  C        45.5332933213       27.7172207549        17.426304643838
  C        44.8268595038       28.7073917604        16.673380796538
  C        35.1229220901       26.6329048520        16.728117499238
  C        35.0973171539       26.6140309726        19.537334486538
  C        18.1486141798        3.2469355269        21.696390510538
  C        17.4299990260        4.3438609114        20.987102457338
  C        16.4145895534        4.0525974709        20.063767309238
  C        15.7662841967        5.0832409716        19.388365966138
  C        16.1211638823        6.4284390576        19.610904765038
  C        17.1127751656        6.7118216647        20.567910520938
  C        17.7604457092        5.6828933864        21.247676872938
  C        15.4906673099        7.5241564254        18.838457020838
  C        15.4965592269        7.5075688680        17.417317901838
  C        16.1932434060        6.5058006096        16.670632132938
  H        10.6725224202       12.4659985781        19.894061913838
  H        11.6948472346       10.5512366411        18.652191547638
  H        15.3915663108       11.1684533543        20.762346148738
  H        14.3510965479       13.0712034670        22.007520835138
  H        13.3764829714       11.6313857824        17.191069017438
  H        50.3226990079       22.7480648976        19.976319134738
  H        49.3195986284       24.6225059864        18.670339736538
  H        45.6425189914       24.1617367559        20.854073844838
  H        46.6633472348       22.2908455308        22.162356882338
  H        47.6301794204       23.5759343615        17.235881959638
  H        14.8721980975        8.5883031243        20.598346785738
  H        50.2869902832       22.7023840624       12.0604935449
  H        49.2690693897       24.5752296385       13.3605195087
  H        45.6108467777       24.1098713627       11.1453466627
  H        46.6528695765       22.2546003296        9.8310254265
  H        47.6081406502       23.5519135483       14.7968194534
  H        40.6383997630       17.0747965027       11.4154617883
  H        48.6871392177       14.0951497062        23.789814494938
  H        10.6814980021       12.4669035723       12.0936694356
  H        11.6898547405       10.5250206807       13.2973687223
  H        15.3933818667       11.1586255514       11.2050688167
  H        14.3648644658       13.0870182304        9.9898435291
  H        13.3761690381       11.6223568346       14.7531030354
  H        47.9301766698       14.2186758776        9.7108512170
  H        47.7800009402       14.3742382829        22.485218382538
  H        49.0833186765       18.5524196164       10.8671136573
  H        10.4161113366       14.1344160541        7.9987067479
  H        24.4835901092        3.0258260797        19.905833927038
  H        25.6289263631        4.8822033775        18.680529050338
  H        23.2633660015        7.7542481484        20.837802284438
  H        22.1358866201        5.8879863291        22.064358740338
  H        23.8179362351        5.7902088649        17.257297400038
  H        36.3740234110       32.1906018426        19.958702186338
  H        35.2436454757       30.3686017109        18.680997896238
  H        37.4973169797       27.4399636632        20.882001414138
  H        38.6088018545       29.2746812931        22.168030281238
  H        37.0171012699       29.4503211769        17.267436407838
  H        25.7563241886        8.6059002154        20.638751556438
  H        36.4575943425       32.2414960716       12.1138841748
  H        35.3454026440       30.4242024436       13.4093396505
  H        37.5257080268       27.4870724746       11.1450010472
  H        38.6129863202       29.3160026932        9.8371010868
  H        37.0423863919       29.4679017394       14.8295742699
  H        46.1091511236       26.5876075988       11.3855323984
  H        44.6681436752       35.1161102222        23.803773726838
  H        24.4336419047        3.0387812326       12.0872821048
  H        25.5646926099        4.8783043028       13.3389930181
  H        23.1645780456        7.7671687207       11.2436455698
  H        22.0452746354        5.9155575149        9.9918101130
  H        23.7904643194        5.7918492244       14.8189701039
  H        44.9533236747       34.3899586689        9.6949346884
  H        44.9012422631       34.2065345876        22.480547824638
  H        40.6654473360       33.2087555014       10.8529353853
  H        23.1504701844        1.9577040609        8.0052168845
  H        25.8030308936       19.6632093915        19.906637592738
  H        23.6358331185       19.7007938220        18.676973857838
  H        22.3646886724       16.1966272020        20.822214361538
  H        24.5416614594       16.1701471415        22.047913301438
  H        23.7241449260       17.6742817360        17.231461348638
  H        35.1161640121       15.4704849907        19.963952392838
  H        37.2456544285       15.4074429555        18.659373946338
  H        38.6896812121       18.7980712975        20.876553176038
  H        36.5610616739       18.8353823431        22.189405545838
  H        37.2177750158       17.3861716711        17.231096590938
  H        20.3595239896       17.9649629093        20.656434860138
  H        35.1646072820       15.4290571891       12.0793844767
  H        37.3049227140       15.3598959417       13.3663598393
  H        38.7199681450       18.7811725693       11.1782193961
  H        36.5775807398       18.8305381194        9.8890128808
  H        37.2329905535       17.3702445943       14.7876939463
  H        35.1464185105       26.6834069111       11.3963132023
  H        28.5041211364       21.0815061874        23.969034844438
  H        25.7430638994       19.6442956918       12.1436235246
  H        23.5602057279       19.6967366959       13.3593138912
  H        22.3036954422       16.1719742518       11.2396211172
  H        24.4890535949       16.1393630977       10.0210453425
  H        23.7017268457       17.6649296370       14.7909137847
  H        29.0132616870       21.7166912885        9.7560355941
  H        29.1708925950       21.7389229326        22.621466644738
  H        32.0819908052       18.5348343259       11.0023529470
  H        27.4079066446       19.0811953398        8.0878274421
  H        14.8477463015       19.6466974554       12.1412355896
  H        17.0106121326       19.6916420703       13.3844368801
  H        18.3020550748       16.1874398734       11.2511424360
  H        16.1350115285       16.1578705519       10.0079602092
  H        16.9205147818       17.6909807284       14.8464012854
  H        46.0915130556       15.4362057253       12.0634853125
  H        43.9663591894       15.3687686548       13.3682716255
  H        42.5432835928       18.8042451763       11.2053981877
  H        44.6688124915       18.8459786971        9.8897020838
  H        44.0151940046       17.3069462122       14.8327360031
  H        20.2881256757       17.9222287201       11.4188415790
  H        46.0352344427       15.3805298150        20.028595059438
  H        43.9040787480       15.3128025593        18.735799624338
  H        42.5143539628       18.7858871407        20.858864757338
  H        44.6520083350       18.8394386934        22.152990338938
  H        43.9997472920       17.2906571964        17.271650447138
  H        46.1991146361       26.6825889524        20.613109200038
  H        52.7412705818       21.0627509695        8.1947123610
  H        14.8817603665       19.6719242836        19.884693621938
  H        17.0823053171       19.7419946543        18.704683715338
  H        18.3337258897       16.2237368375        20.838072160938
  H        16.1352563504       16.1775040708        22.027639461338
  H        16.9423191141       17.7036249521        17.283778065738
  H        52.3229044433       21.6734321221        22.283883381638
  H        52.0137173685       21.7025118661        9.4957439500
  H        49.0673401411       18.6077724971        21.193768458038
  H        13.2474720345       19.0162437511        23.966884400938
  H        29.9583845227       12.4343303726       12.2090771610
  H        28.8884083958       10.5039975431       13.3847232134
  H        25.2416926287       11.2137979660       11.2196380900
  H        26.3295418398       13.1339263275       10.0412627916
  H        27.1729533492       11.6677333377       14.7853040389
  H        31.0018377284       22.7610563745       12.0344031706
  H        32.0119727562       24.6406705260       13.3289359523
  H        35.6860837105       24.1535377068       11.1459269972
  H        34.6539400416       22.2825803655        9.8436959126
  H        33.6830090351       23.5748283252       14.7567254278
  H        25.7013591754        8.5933645742       11.4029823841
  H        30.9459880035       22.6826427577        19.937708380738
  H        31.9519133468       24.5440730562        18.617466087338
  H        35.5973984155       24.1580762016        20.869165428838
  H        34.5730724172       22.3005539309        22.190620818438
  H        33.6494851625       23.5612988312        17.196351273838
  H        40.5834577364       17.0718438240        20.646232679538
  H        32.5029173697       14.1548036969        8.2436604537
  H        29.8910880678       12.5577379903        19.882131844538
  H        28.8693844498       10.6496439645        18.632104999638
  H        25.2267871116       11.1522776379        20.862925473238
  H        26.2732508350       13.0402325762        22.125033095938
  H        27.1718669425       11.6827971803        17.226986403538
  H        33.3054246467       14.2284231613        22.451035607738
  H        33.4066776874       14.4116281445        9.5912133762
  H        32.0652544473       18.4922092905        21.130639445338
  H        30.2120349420       14.1893265226        8.0778257518
  H        16.1181062963        2.9633807627       12.1293680868
  H        14.9529520241        4.8204908576       13.3221061447
  H        17.3668173576        7.6859498091       11.2105708712
  H        18.5154526536        5.8183125811       10.0107399495
  H        16.7534872569        5.7395643973       14.7715098095
  H        44.8282628197       32.1401613582       11.9767910648
  H        45.9375378660       30.3412448234       13.3062658751
  H        43.6817946051       27.3781444093       11.1528804524
  H        42.5990848605       29.1900574266        9.8103246525
  H        44.2301138105       29.4364386906       14.7688721837
  H        14.8513121691        8.5462535984       11.3633141901
  H        44.9002575484       32.2338835193        19.922018081538
  H        46.0251316132       30.4127990978        18.642466040438
  H        43.7624785603       27.4839992541        20.834348604638
  H        42.6447144637       29.3177338623        22.113360279738
  H        44.2682567261       29.4701847254        17.208006146738
  H        35.0505995263       26.6283499944        20.624596277938
  H        36.6050466805       35.1339547111        8.1807169977
  H        16.1433602833        3.0130242988        19.894226403838
  H        14.9737997308        4.8563958422        18.678456111138
  H        17.3964826773        7.7472676198        20.744606901138
  H        18.5435196066        5.8932852609        21.972246593638
  H        16.7645529018        5.7554861369        17.209102841938
  H        36.2785656897       34.4823711559        22.263114658638
  H        36.3807045467       34.2092213402        9.4998904582
  H        40.5794589808       33.2022391870        21.143608069638
  H        17.4706726403        1.9470157538        23.963925596538
  H        28.9405464441       19.1776811486       12.5060694319
  H        28.7864051007       19.1954193404        19.840487002538
  H        31.6381550765       15.8155225110        19.556351229838
  H        31.4973686161       15.6980617890       12.5963312843
  H        28.3652660284       17.6493629233       14.8253364954
  H        30.1237618164       15.7417472752       15.0154347124
  H        31.8224518406       19.3579739194        17.368825833938
  H        33.3675388413       16.8757190848        17.314082779338
  H        28.9597485085       15.8069238771        17.467506268638
  H        33.4491023857       18.9847648824       16.2056453355
  H        18.8536987413        0.8690912899       12.3353400249
  H        40.5279056562       35.2293316226        19.941959085838
  H        42.3235408365       34.4186173382        19.580634853138
  H        22.0877193624        0.6921357486       12.3512822420
  H        11.5966804517       18.7129788542       12.3825020596
  H        52.2651275425       18.4314210276        19.667187525438
  H        49.2557447171       16.4767735461        19.573900756938
  H        10.1506074743       15.7982633509       12.2924821198
  H        50.8503997479       17.6924656554        19.944011563238
  H        10.0461635738       17.3947185075       12.0519230005
  H        20.2149736931        0.0022434404       12.0419502340
  H        39.1835692648       36.1244070212        19.676059464538
 Ni        29.7704549014       17.3192506499        19.071526076538
 Ni        31.7489852943       17.3552810223       15.824801497938