     570
 i =       24, E =     -4745.6116569532
  C        11.8587662261       14.0534995502        21.731344998238
  C        12.4562691133       12.8905603358        21.013070385538
  C        11.7046206272       12.1717297986        20.071296328238
  C        12.2809958188       11.1095320084        19.378940045838
  C        13.6215279623       10.7396306982        19.606778740338
  C        14.3546446303       11.4431074534        20.580356921238
  C        13.7817599977       12.5080801145        21.271875167038
  C        14.2610570521        9.6489687130        18.833382881738
  C        14.2563646784        9.6568827607        17.411682769038
  C        13.7432144493       10.7590073933        16.657764766138
  C        49.1268392482       21.2332778007        21.869451293538
  C        48.5501076262       22.4011980861        21.142371095238
  C        49.3001380228       23.0685106565        20.161362234938
  C        48.7332089239       24.1076578563        19.428174049638
  C        47.4026818245       24.5093473918        19.656827146638
  C        46.6717442672       23.8604976241        20.670370780738
  C        47.2341887070       22.8155867710        21.399713779938
  C        46.7724228448       25.5870253351        18.859543415438
  C        46.7614468134       25.5574162057        17.437780933238
  C        47.2614159916       24.4423398889        16.694284536138
  C        14.8603053588        8.5705408924        16.698424562538
  C        14.8918329763        8.5970176637        19.510036385038
  C        49.1132903142       21.2034907453       10.1453500332
  C        48.5279427127       22.3648493990       10.8725007774
  C        49.2671262024       23.0255089911       11.8654902641
  C        48.6907852717       24.0600690992       12.5969329615
  C        47.3604089958       24.4569311047       12.3586070787
  C        46.6400626772       23.8121067633       11.3349798752
  C        47.2136256891       22.7762025501       10.6032085845
  C        46.7219271319       25.5318737852       13.1496367003
  C        46.7336635005       25.5282254275       14.5713419710
  C        47.2491344352       24.4290328433       15.3277323538
  C        40.6360421976       17.1183803962       15.3213754772
  C        40.6560635916       17.1593770214       12.5124356553
  C        11.8830259514       14.0864811368       10.2854659862
  C        12.4723095034       12.9106492930       10.9896532631
  C        11.7148324556       12.1775731594       11.9159010799
  C        12.2813955746       11.0951139396       12.5843269932
  C        13.6201510511       10.7212188363       12.3523666506
  C        14.3580473388       11.4366114050       11.3913689572
  C        13.7926497145       12.5177898544       10.7186661259
  C        14.2537546284        9.6244914171       13.1228051686
  C        14.2525047697        9.6444999658       14.5446464601
  C        13.7426590708       10.7534641953       15.2917181116
  C        22.5131147543        3.2440898384        21.743258834838
  C        23.2312721666        4.3476225812        21.044335782738
  C        24.2287051567        4.0637286990        20.099672753338
  C        24.8601778967        5.1005187946        19.417603747438
  C        24.5101696370        6.4436606460        19.660047618338
  C        23.5409029795        6.7190978560        20.641836229538
  C        22.9047260677        5.6840283957        21.322364279038
  C        25.1202218009        7.5476960963        18.884024964938
  C        25.0919403711        7.5408595743        17.462507996538
  C        24.3864448775        6.5436412835        16.716730762538
  C        38.2979142800       31.9284170845        21.841928478638
  C        37.5556111213       30.8408413691        21.140534539538
  C        36.5898992028       31.1498757540        20.170083428438
  C        35.9581804028       30.1334665909        19.458796159438
  C        36.2768349315       28.7816448274        19.694491232338
  C        37.2119714636       28.4800131584        20.702670450738
  C        37.8476472530       29.4954555359        21.413535681338
  C        35.6646765958       27.6951583393        18.895143193438
  C        35.7032052042       27.7110199687        17.473433520238
  C        36.4171717378       28.7110834049        16.740545690738
  C        25.7166700499        8.6097103879        16.742404008638
  C        25.7205369418        8.6209167780        19.554513797638
  C        38.3302328356       31.9611024947       10.1601518636
  C        37.6124648217       30.8892267565       10.9096319840
  C        36.6793869544       31.2009073147       11.9107187754
  C        36.0677054835       30.1854831350       12.6438253195
  C        36.3739448456       28.8313639785       12.4004728277
  C        37.2880408420       28.5295883724       11.3720988612
  C        37.9015200748       29.5415798342       10.6399474941
  C        35.7567329455       27.7345634921       13.1826413097
  C        35.7502417890       27.7311721524       14.6052332431
  C        36.4381799999       28.7217369113       15.3741361376
  C        46.1355940661       26.6208285157       15.2814789299
  C        46.0878946442       26.5801915868       12.4735847481
  C        22.4614229890        3.2559609263       10.2578359069
  C        23.1567884796        4.3641240334       10.9807722680
  C        24.1601898090        4.0768129114       11.9198991657
  C        24.7898208828        5.1059048151       12.6159810886
  C        24.4364059005        6.4523578590       12.3958876827
  C        23.4559955349        6.7329330066       11.4252518429
  C        22.8217825198        5.7040529327       10.7295307880
  C        25.0695868142        7.5492143923       13.1702605907
  C        25.0663740856        7.5410404768       14.5931935099
  C        24.3725849526        6.5446119252       15.3500926318
  C        26.6173244389       17.8602769788        21.773123616438
  C        25.3107414071       17.9118604594        21.050374562638
  C        25.0497193927       18.9141768498        20.102279338038
  C        23.8371672316       18.9358171635        19.415540283438
  C        22.8486212572       17.9596775405        19.655378782138
  C        23.1054145186       16.9809232170        20.634427388738
  C        24.3199047562       16.9528969941        21.318129914438
  C        21.5761471859       17.9464996778        18.889431458438
  C        21.5776530999       17.9287151916        17.466722158138
  C        22.7842158348       17.8103829755        16.707138542338
  C        34.4419958044       17.1900666052        21.906456277338
  C        35.7340374390       17.1388134732        21.163139806938
  C        35.9391726119       16.1686749500        20.169761587138
  C        37.1191189874       16.1558919097        19.431873798138
  C        38.1263009405       17.1110867250        19.669391600538
  C        37.9245134491       18.0613337356        20.688205812538
  C        36.7411624544       18.0803623907        21.422384912838
  C        39.3804678306       17.1185139977        18.883864451638
  C        39.3768402600       17.1330223020        17.462454677938
  C        38.1701908285       17.2559005557        16.704075649038
  C        20.3314930710       17.9443392212        16.757074328538
  C        20.3508796507       17.9453759404        19.570790715738
  C        34.4787906641       17.2440268688       10.1810355360
  C        35.7796673604       17.1698998953       10.9058791151
  C        35.9986825051       16.1770704206       11.8723751974
  C        37.1843255579       16.1572504946       12.6008391112
  C        38.1790891731       17.1291750486       12.3805846593
  C        37.9671857042       18.0972991368       11.3818201440
  C        36.7790738327       18.1223142784       10.6566983413
  C        39.4252847841       17.1440859189       13.1764580482
  C        39.3998609574       17.1465641790       14.5971674444
  C        38.1809915658       17.2604733751       15.3374901355
  C        35.1089151001       26.6553288214       15.3053586171
  C        35.1714637342       26.6630291633       12.4958271919
  C        26.5758975495       17.8290263430       10.3253555973
  C        25.2603541952       17.8756928030       11.0316379337
  C        24.9946931927       18.8853919855       11.9690548632
  C        23.7769640829       18.9129598839       12.6433066281
  C        22.7949631318       17.9310756579       12.4032829967
  C        23.0547939437       16.9461798731       11.4330983247
  C        24.2734291049       16.9163597891       10.7574913531
  C        21.5309149247       17.9148704441       13.1761512170
  C        21.5541823857       17.9105234464       14.5978207605
  C        22.7725266172       17.8012626254       15.3408375431
  C        14.0472791701       17.8292035934       10.2887001728
  C        15.3521888176       17.8875172242       11.0135110125
  C        15.6086186326       18.8917720781       11.9601458826
  C        16.8178201342       18.9141668418       12.6526995584
  C        17.8052846911       17.9351750586       12.4210585475
  C        17.5536433608       16.9551882730       11.4421873356
  C        16.3438513856       16.9282242389       10.7511462739
  C        19.0744181892       17.9200625841       13.1904563531
  C        19.0726145362       17.9197878974       14.6130546175
  C        17.8653554890       17.8203987088       15.3738456019
  C        46.8069527822       17.2190437805       10.1589600510
  C        45.5191180910       17.1588633663       10.9065248677
  C        45.3139571079       16.1800591621       11.8909589583
  C        44.1339968483       16.1636601732       12.6293107393
  C        43.1309966611       17.1264788783       12.4045283648
  C        43.3336771556       18.0853832477       11.3938741771
  C        44.5141040163       18.1054192559       10.6562562047
  C        41.8788528541       17.1381145603       13.1928112410
  C        41.8835126335       17.1313943548       14.6143609090
  C        43.0919757172       17.2210462646       15.3743930901
  C        20.3190443062       17.9342499763       15.3220898222
  C        20.2991264799       17.9000160740       12.5089966856
  C        46.7858426327       17.2301240544        21.880499518238
  C        45.4822497837       17.1215853754        21.167415081638
  C        45.2649536008       16.1218031104        20.207378737938
  C        44.0771359410       16.0935680382        19.481240028638
  C        43.0781366505       17.0619609365        19.698980887938
  C        43.2851221246       18.0305351152        20.698709371238
  C        44.4741599933       18.0653046364        21.419706162338
  C        41.8336387272       17.0853436980        18.900549227938
  C        41.8605766913       17.1030977987        17.479941514438
  C        43.0811177631       17.2052855607        16.740772414938
  C        46.1533791065       26.6372645122        16.716029037938
  C        46.1624036334       26.6561115793        19.525671387538
  C        14.0454537028       17.8319997466        21.698488945538
  C        15.3662356888       17.9074586078        21.007645556438
  C        15.6385765563       18.9241945370        20.080158729038
  C        16.8673044913       18.9632657189        19.424945003938
  C        17.8514105463       17.9848055461        19.671455493338
  C        17.5858166390       16.9968302290        20.637075679738
  C        16.3590718223       16.9572473396        21.295812141238
  C        19.1189785410       17.9627589865        18.902860506738
  C        19.0959161674       17.9408462988        17.481270891338
  C        17.8766909620       17.8298247511        16.739876577438
  C        28.8143184596       14.0944958364       10.3930902235
  C        28.2004075077       12.9204550158       11.0810489346
  C        28.9302799616       12.1657244175       12.0113533471
  C        28.3320352789       11.0898708086       12.6629005999
  C        26.9899179024       10.7433309240       12.4067715878
  C        26.2811724004       11.4780645326       11.4395275537
  C        26.8770116751       12.5547971357       10.7873649707
  C        26.3234699285        9.6609986845       13.1674757102
  C        26.3176204871        9.6838404540       14.5885477208
  C        26.8276924457       10.7936500942       15.3343610801
  C        32.1811238879       21.2428255484       10.1448303316
  C        32.7729337430       22.4092328809       10.8658149199
  C        32.0188776342       23.0914398920       11.8332316077
  C        32.5850665843       24.1327962321       12.5623086111
  C        33.9219061314       24.5201661802       12.3467648556
  C        34.6588627553       23.8564612252       11.3475782784
  C        34.0946362542       22.8102821857       10.6195451940
  C        34.5458703038       25.5963668248       13.1510257047
  C        34.5215688326       25.5717521189       14.5730514248
  C        34.0009258100       24.4603609343       15.3085984663
  C        25.7077800762        8.6062482374       15.3076455097
  C        25.6831664379        8.6126239009       12.4940333305
  C        32.0790989324       21.2027408366        21.865813132438
  C        32.6440682023       22.3688081877        21.125142813638
  C        31.9047161816       23.0224390484        20.127303940438
  C        32.4743994452       24.0636614772        19.396394931238
  C        33.7971303390       24.4817837437        19.644153948238
  C        34.5170876709       23.8426773696        20.672133397238
  C        33.9528910794       22.7977740307        21.398149181338
  C        34.4366178035       25.5672235287        18.863220950038
  C        34.4636613607       25.5578203923        17.440895792838
  C        33.9716252277       24.4542952865        16.675054757638
  C        40.6240544786       17.1076132371        16.755309607438
  C        40.6027005128       17.1115017941        19.564729023938
  C        28.7507162314       14.0680967726        21.808233957738
  C        28.1446116158       12.9179709644        21.072117833938
  C        28.8832213750       12.2223664474        20.102736416538
  C        28.3063335932       11.1636812125        19.405111050338
  C        26.9741981316       10.7741980255        19.650864555638
  C        26.2528744414       11.4570529162        20.648119135938
  C        26.8284316276       12.5158701797        21.347979671238
  C        26.3342556236        9.6827667943        18.877333658838
  C        26.3241539210        9.6954695063        17.455312317338
  C        26.8282661590       10.8008233415        16.700244890438
  C        18.1354500684        3.1809055754       10.3171134844
  C        17.4061337436        4.2781690651       11.0157410587
  C        16.3903958187        3.9997857819       11.9432254990
  C        15.7426485666        5.0397499583       12.6067338654
  C        16.0945606746        6.3834729692       12.3670825255
  C        17.0839470172        6.6530234215       11.4033323248
  C        17.7330605575        5.6156939774       10.7382719749
  C        15.4702138554        7.4911636479       13.1301292610
  C        15.4855008838        7.4905000186       14.5518450381
  C        16.1870618028        6.4968931066       15.3050235515
  C        42.9457871872       31.8595187749       10.0728373706
  C        43.6461536365       30.7718248458       10.8167929051
  C        44.5916517144       31.0931584603       11.8028900550
  C        45.1973692210       30.0876170676       12.5505526517
  C        44.8709724358       28.7345485885       12.3356772493
  C        43.9451680611       28.4201966983       11.3224489920
  C        43.3363425829       29.4253367782       10.5744048684
  C        45.4886125128       27.6552710431       13.1388618818
  C        45.4928015999       27.6809058492       14.5605589287
  C        44.8056437659       28.6889030500       15.3071858840
  C        14.8565287992        8.5629986642       15.2641988183
  C        14.8749390841        8.5629283052       12.4515304846
  C        42.9463890161       31.9615772894        21.798768877338
  C        43.6915940282       30.8854363825        21.085257933838
  C        44.6562883292       31.1913519188        20.113057285638
  C        45.2778128516       30.1717695367        19.395323464638
  C        44.9539583031       28.8214549860        19.632870455638
  C        44.0203290599       28.5237800204        20.643506476938
  C        43.3920547491       29.5405420887        21.355688958538
  C        45.5630439036       27.7240714846        18.847620207238
  C        45.5333394269       27.7173790548        17.426322131038
  C        44.8269417500       28.7075559645        16.673371046738
  C        35.0820505948       26.6468198920        16.740598030638
  C        35.0489983355       26.6229104313        19.550959193838
  C        18.1486618285        3.2469556775        21.696434156138
  C        17.4300517865        4.3438232771        20.987160048138
  C        16.4147679697        4.0525440536        20.063675888838
  C        15.7664599745        5.0831675628        19.388266697938
  C        16.1211829310        6.4283968580        19.610918352838
  C        17.1126437128        6.7117901688        20.568085104638
  C        17.7603193971        5.6828835673        21.247871660438
  C        15.4906715163        7.5240858004        18.838458319238
  C        15.4965463140        7.5074533508        17.417320931038
  C        16.1932969587        6.5057368641        16.670629817938
  H        10.6725213248       12.4659254104        19.894212237938
  H        11.6947354936       10.5511010451        18.652339580938
  H        15.3916473629       11.1684453986        20.762159248738
  H        14.3512076764       13.0712433452        22.007370522938
  H        13.3762255863       11.6311480538        17.191064653038
  H        50.3228346636       22.7484510543        19.976590720338
  H        49.3196870550       24.6229103624        18.670581689538
  H        45.6422651728       24.1612961923        20.853571477038
  H        46.6631672051       22.2903786211        22.161821758438
  H        47.6299591009       23.5759596196        17.235960619538
  H        14.8721912885        8.5882684516        20.598343946038
  H        50.2871434703       22.7026085271       12.0604695044
  H        49.2691481192       24.5754819468       13.3604876630
  H        45.6107026017       24.1094369413       11.1458157528
  H        46.6528364312       22.2541457470        9.8315521099
  H        47.6079093498       23.5519036326       14.7968498539
  H        40.6627970133       17.1325647759       11.4244962913
  H        48.6872102326       14.0948599559        23.789874973338
  H        10.6814035118       12.4667415860       12.0933930194
  H        11.6896301866       10.5247969371       13.2971069840
  H        15.3934266772       11.1586071014       11.2053141201
  H        14.3649733503       13.0870574826        9.9900422195
  H        13.3758583762       11.6220865993       14.7530769459
  H        47.9302407120       14.2184120171        9.7107102304
  H        47.7801540584       14.3739935428        22.485214763838
  H        49.0846190025       18.5526668620       10.8674644904
  H        10.4162082099       14.1342677599        7.9986469329
  H        24.4866045756        3.0241379799        19.910225972838
  H        25.6336211060        4.8798430671        18.685126662538
  H        23.2632454200        7.7531445218        20.835418015738
  H        22.1342571298        5.8876102596        22.062046941838
  H        23.8246383564        5.7875804729        17.257441341938
  H        36.3593010640       32.1944807855        19.974835317738
  H        35.2102240517       30.3779978209        18.707719388438
  H        37.4660622095       27.4392972184        20.893083062838
  H        38.5950979022       29.2689343479        22.170273796738
  H        36.9798605687       29.4599623382        17.290205412238
  H        25.7552997415        8.6038625141        20.642339876638
  H        36.4527285700       32.2456772946       12.1110193634
  H        35.3375154642       30.4344271735       13.4107144798
  H        37.5384726091       27.4888566152       11.1772958846
  H        38.6277376355       29.3118245481        9.8640008912
  H        37.0178468098       29.4785056069       14.8533158705
  H        46.1092868066       26.5875954884       11.3855485008
  H        44.6681978229       35.1161236780        23.803786091638
  H        24.4375345727        3.0382759270       12.0858248136
  H        25.5715480548        4.8756570910       13.3367219729
  H        23.1712687486        7.7677333489       11.2459891791
  H        22.0491957482        5.9183250240        9.9946633508
  H        23.7995522447        5.7898901161       14.8192895658
  H        44.9535197038       34.3901692818        9.6950659608
  H        44.9015315929       34.2066598643        22.480514168438
  H        40.6660945265       33.2091675632       10.8531987257
  H        23.1505535150        1.9576525997        8.0054327349
  H        25.8074890803       19.6725681942        19.918744261038
  H        23.6406104073       19.7186726098        18.686086865838
  H        22.3540774500       16.2182257407        20.828838554438
  H        24.5287990615       16.1827113456        22.057008637538
  H        23.7255450154       17.6951178524        17.236630663138
  H        35.1574722453       15.4357847994        19.985489307238
  H        37.2776920818       15.3967017599        18.669101147938
  H        38.6948740756       18.8066900501        20.874895413738
  H        36.5680241582       18.8284396430        22.192543934038
  H        37.2305664569       17.3782561987        17.235115955038
  H        20.3565803584       17.9826526308        20.658760136938
  H        35.2212397708       15.4375259937       12.0481624959
  H        37.3543407289       15.3853014134       13.3481806132
  H        38.7302058495       18.8533309792       11.2084975006
  H        36.5925305744       18.8863202613        9.9057314225
  H        37.2496744769       17.3854606321       14.7925342489
  H        35.1560688353       26.6862507319       11.4078158634
  H        28.5084660906       21.0859626110        23.958394558038
  H        25.7549908198       19.6418052672       12.1502935586
  H        23.5711369455       19.7004359888       13.3651371959
  H        22.3049694576       16.1812134644       11.2418185123
  H        24.4895276110       16.1443478892       10.0228169499
  H        23.7048731445       17.6793888705       14.7976873570
  H        29.0054995109       21.7189708614        9.7625759404
  H        29.1411526657       21.7521464926        22.600614134438
  H        32.1415172936       18.5524017378       10.9293627084
  H        27.4091535466       19.0810413529        8.0869044415
  H        14.8497570302       19.6504910560       12.1379581028
  H        17.0125297701       19.6993561790       13.3800974860
  H        18.3052854784       16.1912624120       11.2539580685
  H        16.1384590731       16.1581863007       10.0113039075
  H        16.9232493334       17.7032710388       14.8462035702
  H        46.0960489882       15.4460525356       12.0700876155
  H        43.9738126893       15.3969574698       13.3841258028
  H        42.5665496885       18.8364778371       11.2173912111
  H        44.6882877661       18.8594052376        9.8922428273
  H        44.0343243180       17.3351685178       14.8462590693
  H        20.2936595719       17.9266548857       11.4207674315
  H        46.0428740203       15.3824162905        20.031268036138
  H        43.9107326223       15.3186912012        18.736090872438
  H        42.5178316496       18.7820067270        20.872736729438
  H        44.6566970077       18.8323105779        22.168306602038
  H        44.0151822963       17.3060955927        17.285802714738
  H        46.1992017105       26.6826517082        20.613118063338
  H        52.7411683342       21.0626477531        8.1946820016
  H        14.8774468763       19.6775936065        19.889533037338
  H        17.0776361193       19.7547901483        18.708867058438
  H        18.3369629056       16.2349174766        20.835014620638
  H        16.1387565262       16.1816736334        22.025304733438
  H        16.9431093836       17.7199294313        17.283406323238
  H        52.3223886371       21.6732954201        22.284149380638
  H        52.0131695089       21.7019857467        9.4956812064
  H        49.0675154324       18.6077756170        21.193936723838
  H        13.2476149397       19.0163736683        23.967115143238
  H        29.9656040480       12.4356471707       12.2073619966
  H        28.8995352150       10.5038627013       13.3826870960
  H        25.2441056191       11.2204081525       11.2344518489
  H        26.3275298294       13.1426139780       10.0561729972
  H        27.1924805128       11.6614814519       14.7933426812
  H        30.9922686835       22.7799747180       12.0097950776
  H        31.9941652891       24.6601761828       13.3079698839
  H        35.6936606553       24.1452187757       11.1749515426
  H        34.6699140920       22.2734163678        9.8687409966
  H        33.6485209596       23.5908120887       14.7612154060
  H        25.7082904060        8.5962338966       11.4058478085
  H        30.8866937632       22.6945452826        19.929144331938
  H        31.8936333000       24.5694228934        18.628068416038
  H        35.5407857725       24.1531197589        20.870840013338
  H        34.5165071985       22.2833590567        22.172784849638
  H        33.5967888750       23.5796759478        17.199158968538
  H        40.5945738210       17.0727916995        20.652334393238
  H        32.5070154440       14.1460342087        8.2433005589
  H        29.9107035062       12.5252651895        19.914707507538
  H        28.8873708212       10.6202094072        18.663151537738
  H        25.2222137107       11.1692395760        20.845215445338
  H        26.2676990256       13.0582053605        22.105575202538
  H        27.1919578190       11.6745201620        17.233173291638
  H        33.3106135880       14.2363012423        22.461457983938
  H        33.4114564312       14.4045508742        9.5926776902
  H        32.1278311396       18.4877490058        21.155648290238
  H        30.2252440321       14.1907654970        8.0739817700
  H        16.1183400255        2.9632730921       12.1295940735
  H        14.9531777229        4.8203428779       13.3223636923
  H        17.3663768545        7.6859038127       11.2102413033
  H        18.5150944349        5.8183529847       10.0104199397
  H        16.7536068838        5.7395435721       14.7715231371
  H        44.8278947439       32.1402473537       11.9770897464
  H        45.9372103338       30.3413796258       13.3065188434
  H        43.6824740001       27.3781277624       11.1523284175
  H        42.5997645902       29.1899829660        9.8097049425
  H        44.2302119441       29.4366122956       14.7688814481
  H        14.8511824183        8.5461392104       11.3633100189
  H        44.8998935419       32.2340330765        19.921684125838
  H        46.0247835749       30.4129972453        18.642150261438
  H        43.7632411094       27.4840615607        20.834961897038
  H        42.6454247767       29.3177312773        22.114003941138
  H        44.2683694713       29.4703937131        17.207960608138
  H        35.0021058484       26.6342888136        20.638300836838
  H        36.6051817480       35.1340447299        8.1806186651
  H        16.1436412753        3.0129663021        19.894021754638
  H        14.9740798579        4.8563152936        18.678244682238
  H        17.3962285947        7.7472515846        20.744891517138
  H        18.5432811064        5.8933354327        21.972544888138
  H        16.7647285316        5.7555028455        17.209081130338
  H        36.2788726248       34.4821747459        22.263138497438
  H        36.3809837685       34.2090085259        9.4995337278
  H        40.5788850436       33.2016575928        21.143907882838
  H        17.4709886797        1.9470864704        23.963882609238
  H        29.1647108138       19.3476681409       12.5008396817
  H        28.8673712524       18.4686514549        19.843229583538
  H        31.7581548790       15.7810749307        19.503253081638
  H        31.4622068905       15.6640704014       12.5085218275
  H        28.2184519574       17.7944225469       14.4959564415
  H        29.6198575335       15.4570662241       14.4013426792
  H        30.1012262025       19.8692731712        18.018110729738
  H        32.6205224594       17.5921217698        17.352202541638
  H        18.8530306604        0.8689771231       12.3351437533
  H        40.5281120319       35.2289686198        19.941921158438
  H        42.3235514074       34.4183460846        19.580628416538
  H        22.0875786825        0.6917481630       12.3516471898
  H        11.5968121517       18.7130397639       12.3826824486
  H        52.2647393390       18.4312708035        19.666848275838
  H        49.2552802586       16.4771662740        19.574400528438
  H        10.1501613100       15.7982037576       12.2929079700
  H        50.8500114821       17.6923433965        19.944066200738
  H        10.0461127324       17.3944498367       12.0519805598
  H        20.2141534466        0.0020797960       12.0420868707
  H        39.1837119239       36.1242899830        19.676072968038
 Ni        30.9031150840       17.8371690307        18.900746065138
 Ni        31.0309418574       16.5475228365        15.991293061638
 Ni        29.8413068993       18.6985466940       15.917322431138
 Ni        30.1831460297       17.4256004247       13.1563068848