     569
 i =      198, E =     -4729.5215587272
  C        11.8585492215       14.0534637829        21.731376574838
  C        12.4559755890       12.8904464163        21.013075254438
  C        11.7043720303       12.1717827950        20.071153040238
  C        12.2806897733       11.1095369855        19.378806456438
  C        13.6211377372       10.7394377529        19.606787468338
  C        14.3541923919       11.4427137372        20.580559822938
  C        13.7813492372       12.5077058841        21.272077696338
  C        14.2606470147        9.6487605458        18.833395047138
  C        14.2560242638        9.6567042804        17.411689929538
  C        13.7429621247       10.7588674775        16.657769322038
  C        49.1265366125       21.2333632837        21.869590383638
  C        48.5496796650       22.4012052721        21.142523631938
  C        49.2997353968       23.0685421687        20.161546322438
  C        48.7327858095       24.1076101043        19.428281381138
  C        47.4022150901       24.5091906316        19.656839440738
  C        46.6712302484       23.8602976125        20.670322600938
  C        47.2336939285       22.8154464571        21.399743011738
  C        46.7720059180       25.5868681213        18.859526110638
  C        46.7610977803       25.5572853756        17.437763143538
  C        47.2610991423       24.4422215118        16.694270767438
  C        14.8599071969        8.5703274766        16.698431679038
  C        14.8913263133        8.5967470702        19.510043435838
  C        49.1129259791       21.2034311384       10.1453375096
  C        48.5275053618       22.3647608505       10.8724244943
  C        49.2667748989       23.0255937055       11.8652408167
  C        48.6904170189       24.0601164152       12.5967092195
  C        47.3599350139       24.4567354499       12.3585892843
  C        46.6394756050       23.8117116646       11.3351707931
  C        47.2130541785       22.7758311863       10.6033698560
  C        46.7214837017       25.5316847950       13.1496307649
  C        46.7333111504       25.5280889217       14.5713328962
  C        47.2488314124       24.4289171266       15.3277175069
  C        40.6144437946       17.0733249388       15.3166394593
  C        40.6307908630       17.0989698759       12.5066682627
  C        11.8827790438       14.0864191030       10.2855047805
  C        12.4719553051       12.9104794768       10.9896612778
  C        11.7144589997       12.1774905732       11.9159529946
  C        12.2809537874       11.0949900741       12.5843838407
  C        13.6196660490       10.7209862082       12.3523772712
  C        14.3575786136       11.4362796561       11.3913200952
  C        13.7922422186       12.5174898715       10.7186202402
  C        14.2532506516        9.6242419962       13.1228135263
  C        14.2521055739        9.6442922837       14.5446548052
  C        13.7423667346       10.7533046693       15.2917232523
  C        22.5107363428        3.2435855762        21.743262822938
  C        23.2240951195        4.3487009523        21.043098436038
  C        24.2210982338        4.0682304544        20.097273591738
  C        24.8469940346        5.1076487979        19.414446400338
  C        24.4908112078        6.4489980947        19.657515068738
  C        23.5219165589        6.7210707364        20.640352390738
  C        22.8916762209        5.6834402838        21.321833007638
  C        25.0962703336        7.5546242849        18.881670681238
  C        25.0743398847        7.5444632119        17.460197785338
  C        24.3732459434        6.5444651259        16.713995792138
  C        38.2973912458       31.9277296854        21.842365731238
  C        37.5545132967       30.8389862652        21.142873989138
  C        36.5882213705       31.1457454764        20.172204748638
  C        35.9569581620       30.1277372594        19.462530895638
  C        36.2764899484       28.7762987737        19.699761367038
  C        37.2115532703       28.4770249267        20.708746673438
  C        37.8467459552       29.4939949206        21.418003916638
  C        35.6670489343       27.6879231110        18.900222902138
  C        35.7090909336       27.7025182694        17.478493555638
  C        36.4218411857       28.7040050880        16.746336401038
  C        25.7015540240        8.6118245742        16.740262236938
  C        25.6885002944        8.6319595007        19.552534610138
  C        38.3306419734       31.9602275292       10.1612800696
  C        37.6152993214       30.8872674291       10.9123452811
  C        36.6823335086       31.1968824370       11.9142807654
  C        36.0731436826       30.1802599213       12.6481745827
  C        36.3814330866       28.8264236565       12.4051855204
  C        37.2957282348       28.5267385093       11.3762437043
  C        37.9066490232       29.5398624355       10.6433002262
  C        35.7661010283       27.7278530370       13.1872422640
  C        35.7592013911       27.7233715158       14.6100568697
  C        36.4442796726       28.7151190087       15.3799429847
  C        46.1352925827       26.6207196391       15.2814661793
  C        46.0874270993       26.5799766692       12.4735739557
  C        22.4612047506        3.2547646631       10.2570078906
  C        23.1573965079        4.3618173301       10.9797372760
  C        24.1615462511        4.0724932713       11.9172738823
  C        24.7921202166        5.1004432600       12.6138318726
  C        24.4383588570        6.4466985601       12.3947744328
  C        23.4572415584        6.7294394634       11.4257506990
  C        22.8219793352        5.7016847213       10.7297425874
  C        25.0714786494        7.5427407853       13.1692227186
  C        25.0622477102        7.5376945035       14.5917424661
  C        24.3654284399        6.5425970488       15.3473827092
  C        26.5628879441       17.8212666858        21.778885635338
  C        25.2627210318       17.8808320195        21.051298628738
  C        25.0143061244       18.8829538830        20.100595336438
  C        23.8057298107       18.9095915884        19.408854024738
  C        22.8136746599       17.9375162371        19.647048795338
  C        23.0573890818       16.9595671514        20.629404590238
  C        24.2670270991       16.9277676086        21.319308320038
  C        21.5475919237       17.9277279132        18.876155428838
  C        21.5558566006       17.9144175383        17.454383841238
  C        22.7653838657       17.7929607000        16.700045377438
  C        34.4187290852       17.2224467523        21.908861201838
  C        35.7097487351       17.1551234594        21.163628226938
  C        35.9107863228       16.1759072833        20.177602451138
  C        37.0926066855       16.1496479331        19.441476200538
  C        38.1072658303       17.0998889857        19.670940174038
  C        37.9085142574       18.0588526955        20.683043706038
  C        36.7244249208       18.0912137780        21.416328901138
  C        39.3629460252       17.0970301825        18.884057841838
  C        39.3581287831       17.0996700905        17.461660925838
  C        38.1510612103       17.2160386902        16.703174117738
  C        20.3126825613       17.9375241239        16.741285758838
  C        20.3214933826       17.9255277861        19.553989378638
  C        34.4380152421       17.2393980356       10.1883012254
  C        35.7392372470       17.1377808916       10.9104775553
  C        35.9395750802       16.1609045889       11.8974109507
  C        37.1304822115       16.1258782804       12.6189232216
  C        38.1497392418       17.0678122955       12.3763431113
  C        37.9546821579       18.0181592825       11.3560966087
  C        36.7639251936       18.0573601244       10.6364285266
  C        39.3986729338       17.0812922228       13.1714130324
  C        39.3765810394       17.0932911139       14.5934003870
  C        38.1596656785       17.2116582330       15.3364924971
  C        35.1203735098       26.6454356171       15.3096314062
  C        35.1824135148       26.6556389009       12.4996636132
  C        26.5691463252       17.8289776714       10.3284965390
  C        25.2548570555       17.8796273719       11.0313206136
  C        24.9933531577       18.8862841059       11.9730354195
  C        23.7752284977       18.9150843776       12.6456688347
  C        22.7904527034       17.9381291060       12.3980965020
  C        23.0462631785       16.9570124001       11.4233332780
  C        24.2653080310       16.9252997995       10.7498398101
  C        21.5253198195       17.9226303185       13.1668222405
  C        21.5437915414       17.9104429627       14.5879039611
  C        22.7591476762       17.7908706725       15.3339345243
  C        14.0457042371       17.8317717176       10.2844778014
  C        15.3521942240       17.8958857808       11.0023186502
  C        15.6106219374       18.9079599959       11.9395402129
  C        16.8210997059       18.9340748553       12.6286078448
  C        17.8047276709       17.9508065927       12.4013607680
  C        17.5521756903       16.9642640380       11.4299732402
  C        16.3412274113       16.9337621469       10.7422928831
  C        19.0708397074       17.9342544926       13.1724558430
  C        19.0626030417       17.9282548623       14.5942230785
  C        17.8514610136       17.8302056436       15.3489977012
  C        46.8018756895       17.2170946380       10.1589801698
  C        45.5095951199       17.1480242342       10.9032425064
  C        45.3065716797       16.1653675798       11.8850325426
  C        44.1234541269       16.1363534602       12.6192544069
  C        43.1108054915       17.0898669170       12.3953479979
  C        43.3112022795       18.0523635254       11.3868726225
  C        44.4952246951       18.0852042286       10.6532715428
  C        41.8559854318       17.0905414822       13.1844307314
  C        41.8613069811       17.0891612713       14.6071367968
  C        43.0697067719       17.1869187205       15.3664156674
  C        20.3060683550       17.9349300520       15.3072910571
  C        20.2966991921       17.9140698105       12.4947850228
  C        46.7822957417       17.2308833233        21.877631281838
  C        45.4776592492       17.1218410310        21.162076126638
  C        45.2582815958       16.1188678869        20.205219974938
  C        44.0689078676       16.0860344451        19.480618926138
  C        43.0670404673       17.0530548850        19.694400740338
  C        43.2772418162       18.0264605204        20.689375153038
  C        44.4677598470       18.0654904645        21.409348224538
  C        41.8188028592       17.0686550699        18.897702503138
  C        41.8423263738       17.0760773829        17.475921674138
  C        43.0608799255       17.1774972532        16.733235208338
  C        46.1530830347       26.6371620540        16.716011142438
  C        46.1620246737       26.6559684678        19.525652805138
  C        14.0398544157       17.8284159878        21.696456814538
  C        15.3542083936       17.8973269667        20.997132637738
  C        15.6249907702       18.9187664419        20.074831581238
  C        16.8493797333       18.9549154590        19.412689952438
  C        17.8272212728       17.9684980944        19.648806972038
  C        17.5622482013       16.9733479358        20.606595617638
  C        16.3401081982       16.9369032589        21.272542013538
  C        19.0933875920       17.9480644937        18.881559339738
  C        19.0745931960       17.9344512482        17.460583238938
  C        17.8573272925       17.8328182239        16.715097522238
  C        28.8063913593       14.0875491747       10.4000490352
  C        28.2000470503       12.9087833922       11.0796702690
  C        28.9256552549       12.1717271755       12.0272647856
  C        28.3304797436       11.0935959713       12.6766511637
  C        26.9959969274       10.7310510534       12.4039897211
  C        26.2930730352       11.4477782246       11.4188803679
  C        26.8860762070       12.5252318997       10.7665883870
  C        26.3278480036        9.6523317050       13.1663380784
  C        26.3147781043        9.6800145724       14.5873491975
  C        26.8224963357       10.7913184309       15.3326171007
  C        32.1778941213       21.2420216557       10.1487535826
  C        32.7761210825       22.4044106052       10.8692213520
  C        32.0253382281       23.0875627480       11.8387287570
  C        32.5954009076       24.1267245689       12.5677590919
  C        33.9326431032       24.5119404026       12.3498766513
  C        34.6662435308       23.8473081906       11.3487778940
  C        34.0985288286       22.8025762667       10.6210895750
  C        34.5587634202       25.5872542022       13.1541867433
  C        34.5359679308       25.5609736530       14.5763544019
  C        34.0199850631       24.4470066624       15.3112482142
  C        25.7004820111        8.6046470367       15.3059347114
  C        25.6894921761        8.6028401853       12.4930144906
  C        32.0706677665       21.1990008558        21.871149804438
  C        32.6393884142       22.3653738049        21.133562659738
  C        31.9115465488       23.0006066029        20.115296855338
  C        32.4844936177       24.0403888214        19.384688167938
  C        33.7992666826       24.4738454312        19.649713184138
  C        34.5067170871       23.8519285384        20.697250933538
  C        33.9393706250       22.8095775108        21.424697586638
  C        34.4422780446       25.5570217422        18.867880352138
  C        34.4754501157       25.5456513579        17.445129534838
  C        33.9902246519       24.4400477981        16.677802710938
  C        40.6046216791       17.0715632919        16.752066230838
  C        40.5874575158       17.0973597658        19.562910586438
  C        28.7281182306       14.0624900121        21.809372663438
  C        28.1205757588       12.9211594963        21.067110622538
  C        28.8673143913       12.2015767453        20.121193111738
  C        28.2853531827       11.1478681183        19.420961143338
  C        26.9430660023       10.7834741650        19.646547352238
  C        26.2130535502       11.4886663943        20.621690739538
  C        26.7915979011       12.5458407119        21.320489407838
  C        26.3044978453        9.6910783815        18.874345614038
  C        26.3052822134        9.6994352518        17.452832271738
  C        26.8167102486       10.8016048081        16.698439777238
  C        18.1352769902        3.1808211155       10.3171679908
  C        17.4058133427        4.2780133206       11.0157421519
  C        16.3901616393        3.9995452453       11.9432970952
  C        15.7423192021        5.0394556627       12.6067998548
  C        16.0940370237        6.3832168590       12.3670752841
  C        17.0833082175        6.6528463750       11.4032228891
  C        17.7325041986        5.6155739803       10.7381630792
  C        15.4696667180        7.4908831475       13.1301328938
  C        15.4850170893        7.4902458829       14.5518468095
  C        16.1865766449        6.4966395721       15.3050213887
  C        42.9457284250       31.8594255684       10.0728405672
  C        43.6460238158       30.7717366013       10.8167772701
  C        44.5916608401       31.0930145353       11.8027626459
  C        45.1973067544       30.0874412847       12.5504267483
  C        44.8706828577       28.7344092920       12.3356689863
  C        43.9447391158       28.4201045315       11.3225545131
  C        43.3359879665       29.4252756070       10.5745043914
  C        45.4882652546       27.6551145943       13.1388573389
  C        45.4925344913       27.6808136147       14.5605463949
  C        44.8054801913       28.6888861321       15.3071643472
  C        14.8561032089        8.5627744277       15.2642045214
  C        14.8743533462        8.5626317560       12.4515399274
  C        42.9463638482       31.9615134990        21.798763062538
  C        43.6915229865       30.8853846850        21.085270804338
  C        44.6562765293       31.1912751062        20.113116700538
  C        45.2777502262       30.1716761252        19.395374085338
  C        44.9537491230       28.8213812928        19.632841281138
  C        44.0200665619       28.5237304928        20.643435661738
  C        43.3918434894       29.5405054961        21.355630829638
  C        45.5627796595       27.7239807588        18.847590919738
  C        45.5331091640       27.7173169538        17.426296504938
  C        44.8267917984       28.7075503038        16.673347744938
  C        35.0920361717       26.6362737581        16.745138031538
  C        35.0505087977       26.6157608345        19.555420918438
  C        18.1484502933        3.2468218615        21.696437874438
  C        17.4296968208        4.3436100381        20.987167599238
  C        16.4145981565        4.0522642057        20.063503861838
  C        15.7661996100        5.0828523162        19.388117189738
  C        16.1206658455        6.4281237493        19.610928736938
  C        17.1118866813        6.7115730725        20.568332938838
  C        17.7596339045        5.6827108729        21.248100955038
  C        15.4901693706        7.5238122624        18.838466570238
  C        15.4960955409        7.5072064445        17.417327373838
  C        16.1928232025        6.5054829441        16.670626515038
  H        10.6723351441       12.4661284028        19.893945973938
  H        11.6944265276       10.5512281036        18.652113454838
  H        15.3911040118       11.1678308797        20.762539381138
  H        14.3506913222       13.0706465072        22.007826624538
  H        13.3760282779       11.6310332330        17.191065517938
  H        50.3224710194       22.7485614041        19.976872077638
  H        49.3192825370       24.6229041574        18.670732612038
  H        45.6417155896       24.1610309739        20.853432616538
  H        46.6626501775       22.2901970007        22.161810575338
  H        47.6296602741       23.5758489085        17.235946746538
  H        14.8715626639        8.5879377960        20.598348823338
  H        50.2868736447       22.7028651541       12.0600651845
  H        49.2688305546       24.5756759953       13.3601260909
  H        45.6100120434       24.1088202707       11.1462189491
  H        46.6521656913       22.2535686088        9.8319217042
  H        47.6076399082       23.5518041810       14.7968293242
  H        40.6367474895       17.0671791960       11.4187754549
  H        48.6869741457       14.0950917747        23.789768636938
  H        10.6810625198       12.4667498698       12.0934881996
  H        11.6891507841       10.5247352542       13.2971831907
  H        15.3929199509       11.1581694143       11.2052204351
  H        14.3645568324       13.0866810980        9.9899316500
  H        13.3755867551       11.6219331736       14.7530785232
  H        47.9300744137       14.2181582411        9.7108683369
  H        47.7798850036       14.3735738386        22.484987258338
  H        49.0823170978       18.5520240762       10.8670438599
  H        10.4156102550       14.1343576167        7.9988091034
  H        24.4829220515        3.0296173296        19.907846034738
  H        25.6207149608        4.8907782101        18.681152286938
  H        23.2399096963        7.7539635454        20.833718254738
  H        22.1212941871        5.8830896416        22.062602526538
  H        23.8097188726        5.7892524927        17.254066046638
  H        36.3568521650       32.1898590627        19.975152419538
  H        35.2089247737       30.3708762411        18.711068285038
  H        37.4663636488       27.4367975457        20.900878950638
  H        38.5942974442       29.2688193336        22.175044940138
  H        36.9820790968       29.4542130798        17.296686281738
  H        25.7170284180        8.6186670354        20.640583033738
  H        36.4534198994       32.2411503985       12.1147449657
  H        35.3429664108       30.4282965513       13.4153842974
  H        37.5482969918       27.4865545304       11.1812405513
  H        38.6327364388       29.3109962175        9.8669624750
  H        37.0226335642       29.4734643020       14.8599379113
  H        46.1087260672       26.5873153323       11.3855358177
  H        44.6682074552       35.1160840333        23.803774062338
  H        24.4383213486        3.0335417222       12.0813931313
  H        25.5744326539        4.8697459939       13.3338009467
  H        23.1730334267        7.7647054153       11.2484588603
  H        22.0484827402        5.9164054610        9.9959903561
  H        23.7954795567        5.7863595579       14.8153842032
  H        44.9537042773       34.3901697607        9.6949433972
  H        44.9017061373       34.2067713147        22.480383444138
  H        40.6659692309       33.2088003482       10.8531290350
  H        23.1504612075        1.9573823707        8.0052660682
  H        25.7770734004       19.6368182038        19.919447369038
  H        23.6148740167       19.6914042941        18.676880372038
  H        22.3001365313       16.2019095433        20.820243738038
  H        24.4695625512       16.1603099113        22.062598281638
  H        23.7038515057       17.6695300001        17.232803123238
  H        35.1260448991       15.4447877635        19.997132195538
  H        37.2452281150       15.3826283549        18.685291040438
  H        38.6824868535       18.8015360789        20.865490691238
  H        36.5568455282       18.8466766397        22.180611041338
  H        37.2111502429       17.3417428464        17.232883654738
  H        20.3236172380       17.9588250520        20.642016381838
  H        35.1439772873       15.4477519179       12.1005907932
  H        37.2820407518       15.3645066681       13.3809109355
  H        38.7334573928       18.7529033247       11.1624800808
  H        36.5944949254       18.8102840680        9.8704733787
  H        37.2261846202       17.3333194709       14.7946021207
  H        35.1663026295       26.6799480350       11.4116751804
  H        28.4998595414       21.0773806598        23.878413507738
  H        25.7570052349       19.6383164369       12.1583902046
  H        23.5708028351       19.6990752633       13.3716396298
  H        22.2929530768       16.1966872299       11.2275453169
  H        24.4800987773       16.1561025122       10.0119459224
  H        23.6927130192       17.6657824651       14.7935778657
  H        29.0140581927       21.7176131131        9.7343293454
  H        29.1912922895       21.7007952078        22.544100470838
  H        32.0591136543       18.5665716165       11.0035457517
  H        27.3692986894       19.0188765932        8.0725633874
  H        14.8520057757       19.6678596171       12.1130075850
  H        17.0195138066       19.7231893858       13.3507173600
  H        18.3031536008       16.1984876551       11.2468972904
  H        16.1319546059       16.1592303554       10.0083377715
  H        16.9111595534       17.7201447233       14.8167524908
  H        46.0933616193       15.4368848105       12.0663839456
  H        43.9692798881       15.3656926532       13.3713698066
  H        42.5389234679       18.7976644633       11.2079488876
  H        44.6634216084       18.8432710443        9.8917751102
  H        44.0113816622       17.3016994368       14.8371998357
  H        20.2948743228       17.9450614536       11.4066913976
  H        46.0357277114       15.3786017554        20.030378399138
  H        43.9036597412       15.3067786494        18.739736026938
  H        42.5103874194       18.7787200252        20.862218398838
  H        44.6488783191       18.8363651096        22.154436920738
  H        43.9958319884       17.2839422321        17.275734858838
  H        46.1987848039       26.6824833586        20.613101138038
  H        52.7411824605       21.0626804308        8.1946254719
  H        14.8667117376       19.6776957722        19.895478260838
  H        17.0621279062       19.7499701255        18.701294402138
  H        18.3106028521       16.2058960196        20.793127934438
  H        16.1177571940       16.1580634048        21.997867446138
  H        16.9214276143       17.7248263817        17.255114737238
  H        52.3225577999       21.6736508865        22.284399850738
  H        52.0136625467       21.7026540822        9.4955536854
  H        49.0668440068       18.6076520412        21.194201692938
  H        13.2470733542       19.0165244612        23.965922526138
  H        29.9516947989       12.4604917856       12.2436855117
  H        28.8938778712       10.5212014114       13.4103568151
  H        25.2619068267       11.1768863066       11.2017111299
  H        26.3405767727       13.1014566735       10.0233790516
  H        27.1922560927       11.6576051160       14.7924853952
  H        30.9983334017       22.7782906120       12.0168798645
  H        32.0071733641       24.6542190676       13.3154556665
  H        35.7013167911       24.1338949997       11.1742206172
  H        34.6720460605       22.2651838117        9.8693257333
  H        33.6716496501       23.5761338605       14.7632886177
  H        25.7195839303        8.5831831419       11.4050400765
  H        30.9027586046       22.6559572057        19.898183777938
  H        31.9116355068       24.5321721914        18.601522224938
  H        35.5241713794       24.1730877810        20.910451299438
  H        34.4947673827       22.3089980343        22.214252281838
  H        33.6190983107       23.5632692805        17.200860036138
  H        40.5811518100       17.0678086499        20.650886518038
  H        32.5198995273       14.1286193151        8.3586782128
  H        29.9076702612       12.4718425892        19.955033255838
  H        28.8707664432       10.5874247249        18.695264658938
  H        25.1744414970       11.2188332086        20.801589593538
  H        26.2251368820       13.1069091039        22.060017144038
  H        27.1807800038       11.6760037916        17.230091628938
  H        33.2901567246       14.1813318146        22.424414656238
  H        33.4031031562       14.4433897164        9.6720146856
  H        32.1214375654       18.5592248723        21.152767174338
  H        30.2095743597       14.1454973134        8.1348210357
  H        16.1182385131        2.9630096875       12.1297319749
  H        14.9528896431        4.8199671829       13.3224504778
  H        17.3655351940        7.6857635695       11.2100358642
  H        18.5144183688        5.8182915145       10.0102032398
  H        16.7530671550        5.7392511866       14.7715222968
  H        44.8280869370       32.1400756074       11.9768639031
  H        45.9372600442       30.3411344059       13.3063051383
  H        43.6818748259       27.3780604827       11.1525460227
  H        42.5993079033       29.1899635692        9.8098918232
  H        44.2300904437       29.4366259984       14.7688586122
  H        14.8504918774        8.5458004530       11.3633230727
  H        44.8999870746       32.2339400024        19.921801571538
  H        46.0247754493       30.4128614406        18.642242024138
  H        43.7628715932       27.4840253586        20.834816995438
  H        42.6451583497       29.3177124785        22.113894327038
  H        44.2682766028       29.4704301845        17.207935207538
  H        34.9989967066       26.6297994330        20.642518848138
  H        36.6051780980       35.1339551951        8.1806397379
  H        16.1436407433        3.0126639352        19.893710529338
  H        14.9739376931        4.8559215729        18.677988088738
  H        17.3951816503        7.7470759596        20.745350112138
  H        18.5423494026        5.8932084971        21.973020257738
  H        16.7642082907        5.7552063526        17.209063315038
  H        36.2786946642       34.4822406383        22.263121790238
  H        36.3805169010       34.2091447335        9.4996644870
  H        40.5787588209       33.2016812791        21.144117064838
  H        17.4708319909        1.9471272603        23.963865776538
  H        29.2151058798       19.4967579630       12.5896142599
  H        28.6976981134       18.7745912813        19.823520753938
  H        30.6372185644       15.2464374326        19.869639779338
  H        31.2731771966       15.6659165764       12.6027674669
  H        28.1522382257       18.0464535231       14.5433503681
  H        29.3775277984       15.6509378307       14.5974202523
  H        32.5950322742       17.5160532445        17.379098777238
  H        18.8534932316        0.8690819246       12.3351574271
  H        40.5280870667       35.2290718948        19.941960727838
  H        42.3233011959       34.4182335341        19.580735094438
  H        22.0877485736        0.6919292550       12.3514409396
  H        11.5968148946       18.7127302705       12.3824723088
  H        52.2648304631       18.4313157684        19.667459089238
  H        49.2551818419       16.4765069586        19.573923897038
  H        10.1501835576       15.7982902718       12.2926911160
  H        50.8499633323       17.6927083542        19.943856096538
  H        10.0459484204       17.3947114547       12.0519477190
  H        20.2148487490        0.0022612274       12.0419623120
  H        39.1835216795       36.1242572633        19.676077310438
 Ni        30.6001609369       18.0222458939        18.651387595038
 Ni        31.0362082575       16.4443896195        15.993268416838
 Ni        29.8003945725       18.4327849926        16.241874953138
 Ni        30.0954387703       17.4801421912       13.2422845425
  O        10.6498315872       14.3651905678        21.475573513138