     574
 i =      206, E =     -4778.8935525965
  C        11.8587431551       14.0536484457        21.731373011138
  C        12.4562955091       12.8906451066        21.013035434138
  C        11.7045873316       12.1716642725        20.071448530538
  C        12.2809668404       11.1094636258        19.379072785938
  C        13.6215604645       10.7397608709        19.606763654738
  C        14.3547655287       11.4433953087        20.580141672938
  C        13.7818687660       12.5083831633        21.271643017838
  C        14.2610789730        9.6490524943        18.833400203038
  C        14.2565806680        9.6570068644        17.411696540638
  C        13.7435656484       10.7592000106        16.657787908538
  C        49.1267939927       21.2332114095        21.869440505038
  C        48.5499875822       22.4011292995        21.142337343738
  C        49.3001087269       23.0685474323        20.161478045138
  C        48.7331732392       24.1076391702        19.428211198238
  C        47.4025632622       24.5091317987        19.656676763538
  C        46.6714722570       23.8600936074        20.669977036538
  C        47.2339374472       22.8152418737        21.399404086338
  C        46.7723495893       25.5868816955        18.859437226138
  C        46.7613968478       25.5573750552        17.437675702238
  C        47.2613997102       24.4423349415        16.694154208238
  C        14.8604479873        8.5706000545        16.698470347138
  C        14.8916293001        8.5969960428        19.510079636238
  C        49.1131226592       21.2033721445       10.1453507268
  C        48.5277093450       22.3647554323       10.8725081668
  C        49.2670022912       23.0256181345       11.8652712653
  C        48.6906738983       24.0602244233       12.5966663038
  C        47.3602042216       24.4568614905       12.3585379106
  C        46.6397082571       23.8117773319       11.3351917684
  C        47.2132653565       22.7758305248       10.6034554288
  C        46.7217474614       25.5318377362       13.1495617344
  C        46.7335737829       25.5282523512       14.5712662383
  C        47.2490947330       24.4290538427       15.3276061075
  C        40.6296534618       17.1027909374       15.3259159902
  C        40.6537434951       17.1516042106       12.5167978644
  C        11.8830207933       14.0866232598       10.2854685520
  C        12.4724338979       12.9108005347       10.9897981446
  C        11.7148906401       12.1775011079       11.9157863657
  C        12.2815029194       11.0950414423       12.5842054965
  C        13.6203662522       10.7214459986       12.3524860654
  C        14.3583919077       11.4371702553       11.3918558468
  C        13.7929521075       12.5183569810       10.7191759145
  C        14.2539671530        9.6246339105       13.1228584582
  C        14.2528217830        9.6446458558       14.5447015320
  C        13.7430564903       10.7536662483       15.2917402245
  C        22.5122942436        3.2437901771        21.742705195038
  C        23.2294797160        4.3475155915        21.042111725638
  C        24.2284109667        4.0632794872        20.099217960538
  C        24.8594789247        5.0996826331        19.416124250138
  C        24.5073117292        6.4427527117        19.655737516138
  C        23.5360156836        6.7186896651        20.635344304238
  C        22.9004742332        5.6839004149        21.317038936838
  C        25.1188115105        7.5458471337        18.879438096738
  C        25.0969919794        7.5360935838        17.457711950138
  C        24.3926748401        6.5385223083        16.711284147738
  C        38.2985324175       31.9280662879        21.840935092338
  C        37.5581891487       30.8403344130        21.137985504938
  C        36.5925673668       31.1486669233        20.167150891538
  C        35.9625184128       30.1319209917        19.454798172138
  C        36.2827928556       28.7802630896        19.689591073438
  C        37.2181678624       28.4793714175        20.697849420238
  C        37.8520143547       29.4950737586        21.409907247538
  C        35.6718016873       27.6929660127        18.890458323838
  C        35.7077883024       27.7090693256        17.468631803638
  C        36.4180344899       28.7108763393        16.734604509238
  C        25.7265759765        8.6022805480        16.737725955338
  C        25.7149083111        8.6215484379        19.549849595538
  C        38.3292014514       31.9608383744       10.1592768318
  C        37.6096462047       30.8888172268       10.9064375960
  C        36.6761933859       31.1998480346       11.9074258237
  C        36.0638726175       30.1838985131       12.6392443466
  C        36.3698404282       28.8298572227       12.3948778416
  C        37.2833594576       28.5287901909       11.3657334939
  C        37.8975028560       29.5412506379       10.6348489807
  C        35.7544901783       27.7324612563       13.1776143619
  C        35.7501230881       27.7291595952       14.6001877811
  C        36.4368005094       28.7213380404       15.3681129803
  C        46.1355303540       26.6208528048       15.2814297117
  C        46.0876269971       26.5801059463       12.4735301995
  C        22.4619008292        3.2551664007       10.2569230451
  C        23.1600585031        4.3624534982       10.9787537623
  C        24.1667398581        4.0728434991       11.9135316201
  C        24.7996521696        5.1004464617       12.6087008806
  C        24.4458196527        6.4471003384       12.3916236414
  C        23.4619763310        6.7301911729       11.4253932132
  C        22.8246055809        5.7026910159       10.7305197027
  C        25.0820031954        7.5421005162       13.1657818453
  C        25.0787323141        7.5333633560       14.5885137060
  C        24.3821465222        6.5383378463       15.3446554209
  C        26.6167389587       17.8570631260        21.771442281338
  C        25.3103724047       17.9072592318        21.049944644138
  C        25.0594689945       18.8967259553        20.086035858338
  C        23.8464492555       18.9204206997        19.400950714438
  C        22.8487114183       17.9574397482        19.655377597238
  C        23.0962246765       16.9913191278        20.649398575838
  C        24.3104248611       16.9625203690        21.333479363438
  C        21.5767174355       17.9443580576        18.889469151538
  C        21.5776083248       17.9231677885        17.466591475538
  C        22.7833367063       17.7990040722        16.706469070338
  C        34.4211703999       17.2173574291        21.897807596238
  C        35.7125681826       17.1461316597        21.156766912738
  C        35.9061390865       16.1808954838        20.156526185538
  C        37.0899295634       16.1546114358        19.424287380938
  C        38.1115073659       17.0924346006        19.671728198238
  C        37.9201774118       18.0368518949        20.698537619538
  C        36.7348605092       18.0682022004        21.428594872938
  C        39.3675529743       17.0941965198        18.887704217538
  C        39.3664385597       17.1133997159        17.465789891138
  C        38.1615876440       17.2429970487        16.705433207138
  C        20.3309952245       17.9416606738        16.757603797738
  C        20.3512843211       17.9466314874        19.570951797838
  C        34.4734801676       17.2448645473       10.1824431083
  C        35.7752077224       17.1667420703       10.9063887148
  C        35.9932843861       16.1735006093       11.8727918507
  C        37.1791578787       16.1515610113       12.6011596592
  C        38.1758504057       17.1218051794       12.3815666273
  C        37.9649678482       18.0901774980       11.3826330990
  C        36.7766324380       18.1173352020       10.6576424949
  C        39.4217054065       17.1350110009       13.1789135407
  C        39.3944986421       17.1347537130       14.5998694235
  C        38.1750111645       17.2507458348       15.3388114872
  C        35.1127985756       26.6516220271       15.3012725452
  C        35.1698573692       26.6598648652       12.4919788082
  C        26.5713007809       17.8288343193       10.3256666278
  C        25.2570097844       17.8732368953       11.0320639530
  C        24.9925223642       18.8794674299       11.9733471404
  C        23.7749792633       18.9057495241       12.6473034254
  C        22.7921156547       17.9259472696       12.4031894324
  C        23.0505451482       16.9444753922       11.4291315794
  C        24.2692038677       16.9158934269       10.7537681944
  C        21.5286010855       17.9092227527       13.1763143003
  C        21.5525580947       17.9037123888       14.5979729159
  C        22.7709028425       17.7897406397       15.3401787949
  C        14.0469054604       17.8293415138       10.2886578626
  C        15.3514095785       17.8877015289       11.0135520527
  C        15.6077145317       18.8921597840       11.9600075003
  C        16.8165672601       18.9142574414       12.6530632379
  C        17.8036057956       17.9347169539       12.4220764103
  C        17.5521883942       16.9547854831       11.4430845613
  C        16.3428367878       16.9281142899       10.7514858003
  C        19.0724589972       17.9186481657       13.1914915771
  C        19.0710976672       17.9190083773       14.6140533592
  C        17.8639334904       17.8224612935       15.3752174340
  C        46.8058919289       17.2191412757       10.1600159407
  C        45.5182265821       17.1581069220       10.9092416518
  C        45.3146415164       16.1789194281       11.8938931774
  C        44.1350909459       16.1599934909       12.6332700171
  C        43.1294085058       17.1206863083       12.4103025146
  C        43.3309108594       18.0804659217       11.3998294353
  C        44.5109292212       18.1029818440       10.6610326159
  C        41.8761664811       17.1287473159       13.1984255778
  C        41.8783134511       17.1171130528       14.6203618600
  C        43.0853889307       17.2035457587       15.3828751345
  C        20.3178043096       17.9308194402       15.3226751940
  C        20.2967393707       17.8966695913       12.5095181132
  C        46.7829629959       17.2286773596        21.881253170938
  C        45.4769576190       17.1146336737        21.171433641538
  C        45.2597334292       16.1113131218        20.214711017938
  C        44.0701479407       16.0766220299        19.491203549938
  C        43.0675745306       17.0419820374        19.707353373338
  C        43.2742744311       18.0135165510        20.704578240238
  C        44.4652024224       18.0547875731        21.422993894538
  C        41.8223463004       17.0614068257        18.907832783238
  C        41.8507615257       17.0812141181        17.486853415738
  C        43.0722237000       17.1843349207        16.749225439738
  C        46.1533676603       26.6372753943        16.715974517738
  C        46.1623268754       26.6559305293        19.525612476038
  C        14.0455725220       17.8322960637        21.698678085038
  C        15.3664827329       17.9085859015        21.008490250638
  C        15.6384842872       18.9253782565        20.080930962738
  C        16.8673370728       18.9651065688        19.426027031938
  C        17.8518807651       17.9871065772        19.672657079238
  C        17.5866898567       16.9993244715        20.638625036138
  C        16.3598990152       16.9591228235        21.297173579638
  C        19.1191305546       17.9643557843        18.903655388238
  C        19.0955576374       17.9414283036        17.482095809638
  C        17.8758876273       17.8324751121        16.741216634138
  C        28.8145173297       14.0940642945       10.3909033211
  C        28.2034384937       12.9184528778       11.0788826106
  C        28.9398125263       12.1597608524       12.0007066482
  C        28.3461461804       11.0805894366       12.6509850931
  C        27.0022178550       10.7360466433       12.4025825226
  C        26.2861240540       11.4760257276       11.4448963566
  C        26.8777562957       12.5554111496       10.7932436039
  C        26.3393006942        9.6514582504       13.1631600024
  C        26.3355591750        9.6725803410       14.5840429605
  C        26.8509880663       10.7800600406       15.3294409481
  C        32.1808838631       21.2392711388       10.1460692289
  C        32.7741391464       22.4033029289       10.8680013882
  C        32.0230504276       23.0800297793       11.8413568879
  C        32.5897401743       24.1221073459       12.5686946775
  C        33.9236829872       24.5147933999       12.3455830743
  C        34.6577857165       23.8555938750       11.3413158976
  C        34.0932200530       22.8087348789       10.6148301889
  C        34.5480581228       25.5916007510       13.1482942072
  C        34.5272948284       25.5659745881       14.5703324116
  C        34.0118653636       24.4520927068       15.3061050719
  C        25.7218547001        8.5971868866       15.3030965344
  C        25.6965967064        8.6047893020       12.4896501051
  C        32.0841688381       21.2032274587        21.862868104138
  C        32.6523510446       22.3680460203        21.122201677738
  C        31.9111676482       23.0286278984        20.129729863438
  C        32.4834739775       24.0665658324        19.396069805938
  C        33.8093720811       24.4770307411        19.639252003838
  C        34.5308999978       23.8320683085        20.662268843838
  C        33.9651175224       22.7883537683        21.388724646738
  C        34.4484875813       25.5627585995        18.858987393438
  C        34.4737462590       25.5526149711        17.436944986838
  C        33.9842195871       24.4470117071        16.672559318238
  C        40.6151224579       17.0878951488        16.760300848138
  C        40.5898200443       17.0847954298        19.569823027138
  C        28.7374591486       14.0642756660        21.811172827138
  C        28.1333958890       12.9176236809        21.070212268538
  C        28.8818985490       12.2102402159        20.116306619638
  C        28.3066203021       11.1524387547        19.415846629438
  C        26.9681881483       10.7746276791        19.645354251238
  C        26.2366388525       11.4703785198        20.626282100238
  C        26.8093675443       12.5292565897        21.328071635438
  C        26.3333412766        9.6802270182        18.872187559838
  C        26.3337899102        9.6880559559        17.450492423938
  C        26.8473879094       10.7887366148        16.695114867638
  C        18.1354387591        3.1808306609       10.3172161264
  C        17.4060818987        4.2780809440       11.0157427216
  C        16.3908475960        3.9996870323       11.9437929658
  C        15.7430652304        5.0396501227       12.6072550738
  C        16.0944189955        6.3834424567       12.3670833532
  C        17.0832030962        6.6529731195       11.4026861023
  C        17.7323440291        5.6156542385       10.7376521799
  C        15.4702099367        7.4911702100       13.1301552175
  C        15.4855727621        7.4905061561       14.5518743351
  C        16.1870935804        6.4968972649       15.3050906885
  C        42.9456891297       31.8593960377       10.0729475447
  C        43.6459666291       30.7717881618       10.8168654065
  C        44.5915159759       31.0930959812       11.8029439183
  C        45.1972110612       30.0875292139       12.5505528598
  C        44.8707618275       28.7344634169       12.3356837716
  C        43.9448941677       28.4201529816       11.3224959836
  C        43.3360678275       29.4253015134       10.5744851408
  C        45.4884141669       27.6552010819       13.1388477204
  C        45.4927148728       27.6809225060       14.5605357698
  C        44.8055442053       28.6888845660       15.3071966997
  C        14.8567306083        8.5630721434       15.2642415239
  C        14.8749676518        8.5629857749       12.4515674914
  C        42.9465025822       31.9613863332        21.798847433738
  C        43.6917325849       30.8853401446        21.085436496338
  C        44.6563278064       31.1912440066        20.113103823138
  C        45.2777694384       30.1716601437        19.395328122138
  C        44.9539945521       28.8213164233        19.632925976938
  C        44.0205016576       28.5236695122        20.643712160838
  C        43.3922872003       29.5404195348        21.355953522338
  C        45.5630303032       27.7239645685        18.847605743738
  C        45.5333314607       27.7173685665        17.426304665638
  C        44.8268867658       28.7075330852        16.673382068338
  C        35.0883517226       26.6433471971        16.736367347938
  C        35.0595289350       26.6190022660        19.546822146038
  C        18.1485116878        3.2468883289        21.696466683938
  C        17.4298082719        4.3437271689        20.987321638138
  C        16.4150673976        4.0523984743        20.063243494538
  C        15.7666983718        5.0829965116        19.387863378938
  C        16.1208197477        6.4283081455        19.611047981238
  C        17.1116065556        6.7117323241        20.568927745838
  C        17.7593254770        5.6828566727        21.248699174838
  C        15.4904540355        7.5240178998        18.838537636738
  C        15.4965156411        7.5074285283        17.417396952638
  C        16.1932612316        6.5057154545        16.670696455138
  H        10.6724254997       12.4657534561        19.894537612738
  H        11.6946667766       10.5509504208        18.652564992938
  H        15.3918516319       11.1689257256        20.761746193638
  H        14.3513349601       13.0717427787        22.006976291438
  H        13.3766062119       11.6313377950        17.191120662638
  H        50.3228848058       22.7486288390        19.976899439638
  H        49.3197190485       24.6229674107        18.670722591638
  H        45.6418690643       24.1606361645        20.852905368838
  H        46.6628320705       22.2898673453        22.161338739738
  H        47.6299488508       23.5759514188        17.235822052538
  H        14.8717414093        8.5882294360        20.598383146138
  H        50.2870972304       22.7028682327       12.0600987647
  H        49.2691137282       24.5758004345       13.3600524992
  H        45.6102326152       24.1088546311       11.1462510102
  H        46.6523804801       22.2535475112        9.8320163361
  H        47.6078659517       23.5519487960       14.7966796460
  H        40.6618192954       17.1275861569       11.4287854072
  H        48.6871310540       14.0950011829        23.789805831838
  H        10.6813708406       12.4664833258       12.0930672783
  H        11.6896840439       10.5245522051       13.2968051045
  H        15.3939041991       11.1594790997       11.2060877210
  H        14.3653244189       13.0879296320        9.9908260664
  H        13.3763235638       11.6222937527       14.7530535422
  H        47.9301451771       14.2187069241        9.7106705988
  H        47.7801690662       14.3745412480        22.485153241438
  H        49.0837621644       18.5524398226       10.8673672485
  H        10.4158960098       14.1343645380        7.9988102158
  H        24.4880037210        3.0236748140        19.912115985338
  H        25.6344340130        4.8785944383        18.685364816438
  H        23.2561607841        7.7526007625        20.826501428938
  H        22.1286324317        5.8876541649        22.055255946238
  H        23.8286533082        5.7837769226        17.251517930538
  H        36.3604186241       32.1930650644        19.972614152638
  H        35.2143991950       30.3760923541        18.703772862838
  H        37.4738036633       27.4389002348        20.887522519638
  H        38.5993476225       29.2688592053        22.166847098938
  H        36.9798826619       29.4611440487        17.283207011238
  H        25.7427825937        8.6084007023        20.637935031538
  H        36.4499322275       32.2444772951       12.1088969369
  H        35.3336425895       30.4323562823       13.4062488072
  H        37.5331862662       27.4881313372       11.1697720568
  H        38.6235342150       29.3118565663        9.8586294472
  H        37.0139882728       29.4793983509       14.8464408944
  H        46.1088854644       26.5874204959       11.3854908392
  H        44.6680418723       35.1159712224        23.803798473838
  H        24.4437397575        3.0337877720       12.0767207848
  H        25.5838620444        4.8688662461       13.3263247047
  H        23.1771153925        7.7654579359       11.2490740687
  H        22.0492709348        5.9181742750        9.9988931604
  H        23.8094549136        5.7839389480       14.8129959004
  H        44.9530936377       34.3897008495        9.6946767572
  H        44.9012408840       34.2065762092        22.480417714338
  H        40.6655963153       33.2085036775       10.8528807656
  H        23.1507052875        1.9570767446        8.0052167126
  H        25.8266964826       19.6415356880        19.887421231238
  H        23.6576250883       19.6940190664        18.659761090438
  H        22.3374529973       16.2392254944        20.855851189138
  H        24.5113135524       16.2031911318        22.085690698538
  H        23.7252296673       17.6800327339        17.234315113238
  H        35.1121111256       15.4639292211        19.961557781338
  H        37.2387698298       15.3988630577        18.656226991938
  H        38.7005000219       18.7694481787        20.893998009138
  H        36.5714191247       18.8123057906        22.204665452738
  H        37.2207040909       17.3686068093        17.233663290938
  H        20.3573482896       17.9865204685        20.658833919938
  H        35.2148584519       15.4352709258       12.0496502969
  H        37.3472127781       15.3793925817       13.3487058458
  H        38.7287606747       18.8454465527       11.2093390865
  H        36.5912903549       18.8823295109        9.9073576214
  H        37.2446083062       17.3804262226       14.7933297415
  H        35.1519092050       26.6831679199       11.4040034178
  H        28.5017273697       21.0903458036        23.874191180638
  H        25.7536288728       19.6335657616       12.1596789097
  H        23.5704655488       19.6899928057       13.3729408326
  H        22.2997251850       16.1812741482       11.2348473932
  H        24.4845731079       16.1465670881       10.0161090107
  H        23.7030670920       17.6643071063       14.7973514806
  H        28.9933214090       21.7272483133        9.7532835060
  H        29.1710317195       21.7318477610        22.544744170538
  H        32.1004871822       18.5584973724       10.9255676464
  H        27.4030988416       19.0748814332        8.0850089593
  H        14.8490620652       19.6512293787       12.1371814057
  H        17.0114872142       19.6996305060       13.3802030055
  H        18.3038609781       16.1908011618       11.2552732602
  H        16.1374715829       16.1581963773       10.0115268197
  H        16.9213809277       17.7070040671       14.8480082823
  H        46.0977506261       15.4458349810       12.0724261382
  H        43.9773432472       15.3919991414       13.3872957794
  H        42.5626703491       18.8305501753       11.2237992692
  H        44.6825082270       18.8578972444        9.8972873502
  H        44.0288465094       17.3183128813       14.8568439454
  H        20.2909434471       17.9239827678       11.4213154111
  H        46.0394991859       15.3738847461        20.038450439038
  H        43.9056582399       15.2987924255        18.748678368538
  H        42.5050625641       18.7630375987        20.878669603538
  H        44.6458471288       18.8247845842        22.169060406938
  H        44.0056764265       17.2830190577        17.295665510838
  H        46.1990869245       26.6823289632        20.613064130938
  H        52.7411354574       21.0626223457        8.1946909860
  H        14.8769684849       19.6783071770        19.890012257938
  H        17.0773869737       19.7566401579        18.709877371038
  H        18.3383003868       16.2379362596        20.836785860438
  H        16.1399338677       16.1836378198        22.026860801538
  H        16.9422845758       17.7247006462        17.285103879538
  H        52.3225670732       21.6733690603        22.284108985238
  H        52.0128466262       21.7018082537        9.4955422069
  H        49.0667845161       18.6072028496        21.193986742438
  H        13.2474963602       19.0164078881        23.967171885538
  H        29.9760459692       12.4300647680       12.1912671764
  H        28.9187308222       10.4905404668       13.3634392662
  H        25.2471892640       11.2202409386       11.2471097906
  H        26.3231769462       13.1474882280       10.0693349356
  H        27.2228027644       11.6443421548       14.7874361398
  H        30.9992983293       22.7629798597       12.0243179748
  H        32.0016404968       24.6450681493       13.3195767713
  H        35.6906320638       24.1482188680       11.1636757578
  H        34.6660382671       22.2750118528        9.8599512024
  H        33.6625993346       23.5793708462       14.7612361792
  H        25.7194440326        8.5897779320       11.4014134840
  H        30.8856932765       22.7157916230        19.942901478138
  H        31.9019931202       24.5771766391        18.631476136538
  H        35.5570413981       24.1372342672        20.856585681938
  H        34.5297145580       22.2684002442        22.158957449538
  H        33.6136930255       23.5702462995        17.196191856138
  H        40.5804352690       17.0442018129        20.657391623738
  H        32.5146816177       14.1489553790        8.2462596121
  H        29.9172777265       12.4983156339        19.947368249238
  H        28.8943366608       10.5981818077        18.687167790038
  H        25.2009852775       11.1913095001        20.809333676338
  H        26.2418248967       13.0815086471        22.073505680138
  H        27.2151543890       11.6603087135        17.228366893038
  H        33.3000226685       14.2036355844        22.434569431138
  H        33.4089310154       14.4119847034        9.5981897891
  H        32.1204442482       18.4940517608        21.135765116238
  H        30.2365769761       14.1894672768        8.0729231932
  H        16.1191514895        2.9631575444       12.1305920419
  H        14.9539084938        4.8201908690       13.3232131923
  H        17.3650211086        7.6859075450       11.2089889305
  H        18.5138230205        5.8183538478       10.0092198207
  H        16.7535880301        5.7394815637       14.7716392620
  H        44.8278364940       32.1401603741       11.9771413670
  H        45.9370465755       30.3412175583       13.3065436511
  H        43.6820865157       27.3781038094       11.1524316460
  H        42.5994364767       29.1899216145        9.8098467067
  H        44.2299801213       29.4365247855       14.7689421963
  H        14.8510495224        8.5461986895       11.3633506669
  H        44.8998706332       32.2339165515        19.921631804638
  H        46.0246436009       30.4128684878        18.642056437038
  H        43.7634618660       27.4839502725        20.835230147838
  H        42.6457347353       29.3175306415        22.114321526638
  H        44.2681947586       29.4702772602        17.207976685338
  H        35.0138860200       26.6297568223        20.634235812638
  H        36.6049595481       35.1339583341        8.1806784163
  H        16.1443672692        3.0127869642        19.893117464238
  H        14.9747048176        4.8560536273        18.677439154838
  H        17.3945305153        7.7472718811        20.746337313638
  H        18.5416897819        5.8933780388        21.973991288638
  H        16.7645964395        5.7553958239        17.209121648838
  H        36.2782698305       34.4824929250        22.263056052538
  H        36.3802151332       34.2093287943        9.4998539568
  H        40.5788766969       33.2013045097        21.144016659538
  H        17.4708982936        1.9468789116        23.963965657838
  H        28.9571988425       19.2179674809       12.3982674228
  H        28.9153226097       18.4917753228        19.720602084138
  H        30.2315324313       15.7944150256        19.853007427238
  H        31.5062585542       15.6916708450       12.5356896561
  H        28.4617369560       17.6210477139       14.8798879757
  H        29.5252088429       15.4774076429       14.5021317108
  H        31.6930784234       19.5976876977        17.048711169538
  H        32.1087216276       16.0917645335        18.036374126838
  H        28.1430296927       15.6932376096        17.965967747638
  H        32.8396267647       19.0278206059       15.6435790449
  H        18.8527044456        0.8687504579       12.3351186160
  H        40.5279121087       35.2290468227        19.941996597538
  H        42.3228642942       34.4176655774        19.581093335938
  H        22.0876581731        0.6915287503       12.3517142534
  H        11.5969682431       18.7129961315       12.3823785192
  H        52.2650426280       18.4312619904        19.667289957338
  H        49.2553854332       16.4771700016        19.574215577838
  H        10.1504278064       15.7983241639       12.2928646696
  H        50.8502039861       17.6925008248        19.944040599238
  H        10.0461869674       17.3946040378       12.0519632729
  H        20.2137830446        0.0019003937       12.0421554503
  H        39.1833869032       36.1241708620        19.676080480138
 Ni        30.9847044925       17.8462327911        18.907908656238
 Ni        31.0268370914       16.5985809421       15.989235351338