     569
 i =      142, E =     -4729.5188685193
  C        11.8584092438       14.0534921940        21.731402747338
  C        12.4558790479       12.8903772297        21.013072851538
  C        11.7044533767       12.1720937680        20.070750504538
  C        12.2807600030       11.1098426775        19.378375217438
  C        13.6210386827       10.7393839100        19.606722063638
  C        14.3538820826       11.4422314258        20.580966823938
  C        13.7810205229       12.5071913592        21.272520126738
  C        14.2606282201        9.6487726588        18.833324736438
  C        14.2561200437        9.6567579293        17.411617294838
  C        13.7430403512       10.7588945228        16.657666090038
  C        49.1263825630       21.2334842940        21.869610065138
  C        48.5496020399       22.4011862269        21.142565865138
  C        49.2995485840       23.0683992692        20.161378379138
  C        48.7325416206       24.1074010445        19.428131436138
  C        47.4020407812       24.5091995480        19.656922750238
  C        46.6711956251       23.8604053965        20.670603927938
  C        47.2336586001       22.8155338163        21.399948794638
  C        46.7718666242       25.5868259223        18.859668243738
  C        46.7613049114       25.5574372859        17.437799706338
  C        47.2610506181       24.4423529803        16.694347917238
  C        14.8600393118        8.5703952224        16.698368260938
  C        14.8912843365        8.5967316782        19.509961522038
  C        49.1128228183       21.2035637777       10.1453504668
  C        48.5275473922       22.3647995301       10.8724060217
  C        49.2666974807       23.0254045092       11.8655103966
  C        48.6903247484       24.0598686916       12.5969846458
  C        47.3599638025       24.4568456324       12.3585640060
  C        46.6396660007       23.8120417234       11.3348539561
  C        47.2132047176       22.7761386346       10.6030988006
  C        46.7215658180       25.5317471784       13.1495679737
  C        46.7336282711       25.5282960004       14.5713654816
  C        47.2488312408       24.4290707299       15.3277182543
  C        40.6182929597       17.0891565558       15.3069579692
  C        40.6273813935       17.1028936769       12.4967380942
  C        11.8825435202       14.0863588968       10.2854570715
  C        12.4716129286       12.9101491584       10.9894552031
  C        11.7142637543       12.1776592623       11.9162348821
  C        12.2806552695       11.0951026510       12.5846840308
  C        13.6191366686       10.7205856074       12.3522202788
  C        14.3568145300       11.4352704834       11.3905238172
  C        13.7915719710       12.5165282259       10.7178231319
  C        14.2528106893        9.6239580100       13.1227212916
  C        14.2519723419        9.6441888999       14.5445661173
  C        13.7423312285       10.7532567199       15.2916200375
  C        22.5108879690        3.2439624632        21.744579289738
  C        23.2237613896        4.3514958525        21.047449534338
  C        24.2244840010        4.0760250116        20.104219744438
  C        24.8482583137        5.1190335731        19.424625038938
  C        24.4860216064        6.4584864204        19.668860771938
  C        23.5137014496        6.7256233487        20.649425801538
  C        22.8856423694        5.6845604674        21.327441576138
  C        25.0854838619        7.5683859657        18.894463212938
  C        25.0565133261        7.5618080102        17.473273039938
  C        24.3578635073        6.5592506545        16.728486739138
  C        38.3018884578       31.9289394228        21.838792863038
  C        37.5711120443       30.8393588339        21.130229413438
  C        36.6071357844       31.1427064773        20.156410632038
  C        35.9883152092       30.1224108924        19.439325738038
  C        36.3186940962       28.7731170836        19.673539424738
  C        37.2530243106       28.4771789515        20.684038219238
  C        37.8755961224       29.4961281912        21.400423405838
  C        35.7165058879       27.6812727712        18.875602769638
  C        35.7461861965       27.6979199384        17.453848114138
  C        36.4471297511       28.7038024672        16.717015153338
  C        25.6742634492        8.6344744161        16.753529570138
  C        25.6773343586        8.6452932529        19.565729084238
  C        38.3283942160       31.9616550512       10.1564065075
  C        37.6064558568       30.8886857008       10.8978922451
  C        36.6746585674       31.1972120475       11.9009275386
  C        36.0637670749       30.1788019020       12.6299370800
  C        36.3703081828       28.8260615935       12.3799949973
  C        37.2798795062       28.5275495049       11.3468379307
  C        37.8927145665       29.5423768551       10.6188860416
  C        35.7626356806       27.7266404066       13.1640512185
  C        35.7696947090       27.7212891636       14.5863775773
  C        36.4578554681       28.7153684661       15.3502918388
  C        46.1358038843       26.6210632242       15.2814898916
  C        46.0872998276       26.5799166295       12.4735361370
  C        22.4599031308        3.2563287704       10.2596679472
  C        23.1509938904        4.3657770939       10.9861909599
  C        24.1489811184        4.0807755480       11.9317718394
  C        24.7734614028        5.1113090748       12.6309069816
  C        24.4207522138        6.4573002802       12.4068571923
  C        23.4456548082        6.7355106211       11.4300919971
  C        22.8162848079        5.7052235494       10.7319372465
  C        25.0484157592        7.5574347455       13.1819487781
  C        25.0377951879        7.5555606411       14.6050404327
  C        24.3464948791        6.5577051314       15.3618979099
  C        26.5424362767       17.8697652196        21.793821399338
  C        25.2393444146       17.9161349377        21.072314563538
  C        24.9853852437       18.9139542860        20.118123491738
  C        23.7823082876       18.9249355890        19.417789545138
  C        22.7998192736       17.9427180326        19.653017768138
  C        23.0475800424       16.9694884253        20.638984595238
  C        24.2536927990       16.9513529512        21.335491254538
  C        21.5374275086       17.9227598841        18.877690879638
  C        21.5489296680       17.9107229193        17.456129398438
  C        22.7601235690       17.7918160429        16.704323988138
  C        34.4417457566       17.2003016181        21.905718559038
  C        35.7283600010       17.1516043597        21.159680701438
  C        35.9253146784       16.1918502346        20.153569783238
  C        37.1058975339       16.1775451428        19.417203473538
  C        38.1234486191       17.1199841889        19.665678579738
  C        37.9283434801       18.0595438003        20.696840981238
  C        36.7446296401       18.0812243934        21.430271939938
  C        39.3760310056       17.1255640597        18.877097137538
  C        39.3676170966       17.1289357767        17.454208820738
  C        38.1599670357       17.2543076621        16.698946747038
  C        20.3071529181       17.9328786762        16.740771092338
  C        20.3105138798       17.9165419675        19.553190811638
  C        34.4378992741       17.2385136732       10.1845896310
  C        35.7364780692       17.1405820486       10.9085353823
  C        35.9333262984       16.1731586415       11.9055935079
  C        37.1240285847       16.1419823146       12.6271149572
  C        38.1472849596       17.0768329918       12.3730190500
  C        37.9554790488       18.0166875201       11.3423766344
  C        36.7644365759       18.0533988119       10.6237695654
  C        39.3972470737       17.0922909797       13.1647935351
  C        39.3786424780       17.1123420174       14.5869832236
  C        38.1650548620       17.2446565341       15.3319406931
  C        35.1427760607       26.6397070636       15.2900574286
  C        35.1766724242       26.6536838242       12.4806146403
  C        26.5637744541       17.8374582844       10.3386489585
  C        25.2517566678       17.8876350488       11.0363551156
  C        24.9960438817       18.8883054060       11.9865493344
  C        23.7779191761       18.9171553272       12.6579650387
  C        22.7888257672       17.9465380616       12.4016522299
  C        23.0393487811       16.9725705663       11.4183501273
  C        24.2579496992       16.9401287981       10.7453609642
  C        21.5240838312       17.9288770606       13.1692318169
  C        21.5417991530       17.9124399210       14.5901979709
  C        22.7560565885       17.7915486725       15.3380894050
  C        14.0451280990       17.8321589871       10.2837514203
  C        15.3523700025       17.8973865770       11.0007247778
  C        15.6113649800       18.9115751842       11.9353374235
  C        16.8220197929       18.9386783807       12.6240476777
  C        17.8046596013       17.9542188211       12.3986242855
  C        17.5517433411       16.9655068344       11.4297335724
  C        16.3405743819       16.9341333535       10.7424245996
  C        19.0701060533       17.9378024253       13.1707029816
  C        19.0602965254       17.9278756076       14.5923049206
  C        17.8477910415       17.8275704074       15.3444429527
  C        46.8013448332       17.2154659521       10.1563461925
  C        45.5073056413       17.1436457500       10.8945769820
  C        45.3024933997       16.1608621140       11.8758424427
  C        44.1180627941       16.1325784989       12.6072933855
  C        43.1064288885       17.0865914012       12.3807188976
  C        43.3075090169       18.0471094706       11.3704899657
  C        44.4929748323       18.0796165896       10.6399223261
  C        41.8538192342       17.0925508144       13.1714012688
  C        41.8632975677       17.0966076239       14.5943450036
  C        43.0736615458       17.1932972245       15.3496581988
  C        20.3027717832       17.9336736812       15.3071505075
  C        20.2966375058       17.9208122477       12.4949271977
  C        46.7845383275       17.2323712083        21.875681252138
  C        45.4836926163       17.1283173011        21.155657081038
  C        45.2666352220       16.1308756697        20.192398589038
  C        44.0797626107       16.1037053648        19.464114388938
  C        43.0785573403       17.0709651423        19.680504092738
  C        43.2869408150       18.0390824531        20.681179099338
  C        44.4747414114       18.0725561822        21.404916536638
  C        41.8311023693       17.0910903451        18.884950935638
  C        41.8518064079       17.0945764840        17.462718172938
  C        43.0682963366       17.1892957762        16.717012615738
  C        46.1535326458       26.6374785441        16.716059339638
  C        46.1616277024       26.6557533969        19.525782975238
  C        14.0370161272       17.8265795445        21.695984705838
  C        15.3491803748       17.8916348002        20.993430490538
  C        15.6209604090       18.9149685371        20.073918901138
  C        16.8443361491       18.9489258583        19.410323795638
  C        17.8182699650       17.9583991926        19.643508263738
  C        17.5518628779       16.9600928604        20.597140470338
  C        16.3307640237       16.9259005284        21.264441803138
  C        19.0844489752       17.9382761725        18.878029915738
  C        19.0679110935       17.9272111528        17.457456254138
  C        17.8515948300       17.8269329076        16.710467986838
  C        28.8081165156       14.0797924865       10.3998598159
  C        28.1915845366       12.9117005579       11.0826732351
  C        28.9020089201       12.1919800301       12.0555323786
  C        28.2987884996       11.1215085181       12.7092175103
  C        26.9713194532       10.7472777494       12.4159749048
  C        26.2846843372       11.4465777388       11.4069112852
  C        26.8848269141       12.5176852211       10.7509378660
  C        26.2972670353        9.6727374171       13.1785803273
  C        26.2774680058        9.7057634769       14.5998076734
  C        26.7704795571       10.8239403193       15.3448760864
  C        32.1786175350       21.2375415911       10.1435159951
  C        32.7757493576       22.3996896945       10.8632812475
  C        32.0316288613       23.0731765904       11.8445167693
  C        32.6035693921       24.1123006441       12.5716861849
  C        33.9355359930       24.5065518372       12.3394523521
  C        34.6619946563       23.8515974861       11.3269157276
  C        34.0926990976       22.8068709617       10.6012329984
  C        34.5641865485       25.5822475476       13.1397351362
  C        34.5561500466       25.5532621511       14.5617544150
  C        34.0540796511       24.4350564432       15.2992179547
  C        25.6699939176        8.6270823187       15.3188462022
  C        25.6653490370        8.6184820253       12.5056291105
  C        32.1058966876       21.2241213461        21.868864541738
  C        32.6935133904       22.3687238208        21.120379337938
  C        31.9653454451       23.0134102244        20.108087303438
  C        32.5455980864       24.0455781838        19.375058409138
  C        33.8667702918       24.4618593073        19.633517927338
  C        34.5769638871       23.8282842917        20.671803174438
  C        34.0025759248       22.7914233791        21.401440645738
  C        34.5071853839       25.5436288443        18.850716748838
  C        34.5261783597       25.5337167660        17.428334150838
  C        34.0390781637       24.4259024369        16.665933075338
  C        40.6122151032       17.0929783814        16.742157877238
  C        40.6018060653       17.1245277959        19.552901516238
  C        28.7272312831       14.0740791957        21.823405111238
  C        28.1111054122       12.9263928276        21.099930385338
  C        28.8386991997       12.2434327718        20.112059564638
  C        28.2539624453       11.1947818696        19.407754080338
  C        26.9257410158       10.7993194038        19.665851194838
  C        26.2166902569       11.4676447834        20.682461259638
  C        26.7984094513       12.5195765558        21.387796072638
  C        26.2834613427        9.7118743690        18.889185668338
  C        26.2726183509        9.7254373215        17.466759222138
  C        26.7663413902       10.8347488455        16.711027055838
  C        18.1352660627        3.1807860108       10.3171812702
  C        17.4057346643        4.2779768104       11.0157398891
  C        16.3902171417        3.9994223255       11.9434019060
  C        15.7422921954        5.0392754076       12.6069140373
  C        16.0938111772        6.3830553645       12.3670579955
  C        17.0829192074        6.6527664560       11.4030643933
  C        17.7322139623        5.6155469397       10.7380259703
  C        15.4694110367        7.4907000666       13.1300944745
  C        15.4850177167        7.4902169654       14.5518008294
  C        16.1867432384        6.4967179201       15.3049667907
  C        42.9459010585       31.8594056975       10.0729025210
  C        43.6462276577       30.7718890865       10.8167402171
  C        44.5916013299       31.0931911552       11.8030189490
  C        45.1972245096       30.0876293785       12.5506592254
  C        44.8709922805       28.7345101496       12.3356111287
  C        43.9453568929       28.4202236817       11.3221678649
  C        43.3365685847       29.4253690773       10.5741584411
  C        45.4884947343       27.6552569730       13.1387798986
  C        45.4930269872       27.6811606842       14.5605601283
  C        44.8059760024       28.6891274147       15.3071477286
  C        14.8561220015        8.5627663888       15.2641403618
  C        14.8738250374        8.5622725101       12.4514803131
  C        42.9465190454       31.9614469267        21.798776541238
  C        43.6917551796       30.8855009753        21.085509344738
  C        44.6559827334       31.1913808327        20.112769432238
  C        45.2773614297       30.1717833909        19.395025676838
  C        44.9539564031       28.8213862674        19.633023344338
  C        44.0209420485       28.5237849988        20.644313485438
  C        43.3927448975       29.5405522251        21.356480775438
  C        45.5628194060       27.7240357829        18.847765965438
  C        45.5334990667       27.7176201608        17.426355007538
  C        44.8272336848       28.7077633924        16.673409840838
  C        35.1292257156       26.6287413221        16.725019051738
  C        35.1149618801       26.6035457961        19.535043075138
  C        18.1485319451        3.2468299786        21.696495669138
  C        17.4297774466        4.3436853005        20.987194368438
  C        16.4148368586        4.0523349972        20.063372025038
  C        15.7664437238        5.0829076385        19.387941974438
  C        16.1207716129        6.4281896664        19.610873075538
  C        17.1118223957        6.7116540208        20.568448142138
  C        17.7595436816        5.6827936791        21.248246913438
  C        15.4902877773        7.5238774817        18.838405089338
  C        15.4962940386        7.5073132473        17.417267405338
  C        16.1930814419        6.5056275114        16.670571442638
  H        10.6725427348       12.4667508432        19.893277120738
  H        11.6945729105       10.5518068988        18.651409573538
  H        15.3906146243       11.1669362431        20.763343804038
  H        14.3500731666       13.0697402957        22.008790711138
  H        13.3760446464       11.6310454426        17.190941840138
  H        50.3222131512       22.7483005533        19.976540371338
  H        49.3188656085       24.6225314588        18.670342469138
  H        45.6416843943       24.1611111053        20.853778229638
  H        46.6626104524       22.2902814466        22.162012481338
  H        47.6291682697       23.5757671914        17.235979531738
  H        14.8713351497        8.5878221220        20.598262287538
  H        50.2866762985       22.7024531269       12.0605643748
  H        49.2685689101       24.5751600982       13.3607066919
  H        45.6102455883       24.1092194728       11.1457728913
  H        46.6522998177       22.2539706059        9.8315973025
  H        47.6072339912       23.5517617896       14.7968829817
  H        40.6306199790       17.0658683190       11.4089913477
  H        48.6868074763       14.0950189235        23.789707627538
  H        10.6810515624       12.4673754631       12.0941334212
  H        11.6889277492       10.5252465428       13.2978675786
  H        15.3919113033       11.1565839065       11.2039247447
  H        14.3636108523       13.0852443143        9.9885475248
  H        13.3754001281       11.6218071079       14.7529527290
  H        47.9299046501       14.2183889638        9.7106164280
  H        47.7799195205       14.3737406030        22.484782339738
  H        49.0809621353       18.5517112609       10.8666237220
  H        10.4151286573       14.1343250680        7.9987995605
  H        24.4905776957        3.0386490107        19.913812939038
  H        25.6243687287        4.9063910471        18.692601812538
  H        23.2270295563        7.7571639128        20.843101594438
  H        22.1122492464        5.8798994861        22.066182097738
  H        23.7996953601        5.8009621106        17.269819396338
  H        36.3675078447       32.1857421501        19.963564805438
  H        35.2405474818       30.3615782847        18.686370608538
  H        37.5160940518       27.4382871796        20.872092677438
  H        38.6223478733       29.2749093105        22.159321389338
  H        37.0085671970       29.4561800303        17.263221210738
  H        25.7141474806        8.6259451342        20.653430880438
  H        36.4498970294       32.2413326641       12.1066236122
  H        35.3356680634       30.4238648792       13.4000314013
  H        37.5288364080       27.4874153152       11.1471183561
  H        38.6172639709       29.3164105632        9.8403511413
  H        37.0287125581       29.4761298166       14.8257261063
  H        46.1083264330       26.5870722953       11.3854869371
  H        44.6681267024       35.1160424898        23.803678481938
  H        24.4264272299        3.0427136307       12.1006507585
  H        25.5511282257        4.8821356469       13.3563834462
  H        23.1609043077        7.7697816313       11.2478250661
  H        22.0476648029        5.9180326062        9.9924962804
  H        23.7788510984        5.7989423036       14.8310366952
  H        44.9534836640       34.3901188050        9.6950254974
  H        44.9011510466       34.2066218967        22.480297260938
  H        40.6654682003       33.2083139421       10.8527558028
  H        23.1504998550        1.9574230534        8.0061312177
  H        25.7418454770       19.6741159933        19.938506833138
  H        23.5878055870       19.7017707631        18.681535078438
  H        22.2973934459       16.2040217316        20.826434102838
  H        24.4614525073       16.1845397374        22.077884243838
  H        23.6980575385       17.6683306740        17.238243952338
  H        35.1362312053       15.4705734008        19.955106808738
  H        37.2560925202       15.4262415397        18.645100267138
  H        38.7044120655       18.7964283435        20.893200958938
  H        36.5792539532       18.8225151294        22.208713707838
  H        37.2226109233       17.3924304089        17.230087549338
  H        20.3100426834       17.9491232810        20.641198503538
  H        35.1351219742       15.4647522047       12.1150841442
  H        37.2736460780       15.3888467466       13.3975878031
  H        38.7374307888       18.7456503768       11.1400437389
  H        36.5975199108       18.7988276574        9.8500448419
  H        37.2314847370       17.3743106052       14.7921107097
  H        35.1500975592       26.6795231626       11.3928707919
  H        28.4844371484       21.1041397535        8.0241218846
  H        25.7638102412       19.6342075820       12.1798806558
  H        23.5768511166       19.6956432619       13.3906872657
  H        22.2821865292       16.2178077086       11.2162788875
  H        24.4680039477       16.1753418674       10.0017521753
  H        23.6911865705       17.6669117836       14.8003681520
  H        29.0252144180       21.7102408902        9.7449951077
  H        29.0649370300       21.8491352938        22.630486150438
  H        32.0377079196       18.5513409305       11.0060609243
  H        27.3740733930       19.0035764668        8.0455100867
  H        14.8528626839       19.6719458880       12.1072615670
  H        17.0209692752       19.7289815708       13.3447265295
  H        18.3021480407       16.1986974189       11.2486522293
  H        16.1302964037       16.1580597176       10.0103768670
  H        16.9085220686       17.7189888473       14.8100932332
  H        46.0892448377       15.4329285972       12.0594271860
  H        43.9621005077       15.3633255222       13.3604581696
  H        42.5352612794       18.7919494063       11.1896496280
  H        44.6631075712       18.8368398423        9.8780701723
  H        44.0144131336       17.3030120980       14.8178563168
  H        20.2962038377       17.9549513726       11.4069303998
  H        46.0435138262       15.3902346141        20.016711725038
  H        43.9150702931       15.3283557616        18.719067615038
  H        42.5203884847       18.7913330986        20.855238569338
  H        44.6549432465       18.8390835230        22.154631066138
  H        44.0050539335       17.2949122122        17.256522998638
  H        46.1980828259       26.6820465363        20.613250416038
  H        52.7408998722       21.0625219346        8.1945472558
  H        14.8645361184       19.6766611308        19.898570721938
  H        17.0596877395       19.7451720900        18.701063713338
  H        18.2980665116       16.1895395561        20.779340695338
  H        16.1055876347       16.1457475544        21.987447210238
  H        16.9151073855       17.7178401334        17.249296841838
  H        52.3214504289       21.6733541121        22.284872048238
  H        52.0129802485       21.7021759156        9.4954398289
  H        49.0667268646       18.6078966071        21.194394141738
  H        13.2465218250       19.0168252209        23.965647379038
  H        29.9223539552       12.4881607581       12.2881793152
  H        28.8506883134       10.5627741158       13.4618479101
  H        25.2595209621       11.1672027877       11.1728016415
  H        26.3494385331       13.0790657749        9.9893935443
  H        27.1272099483       11.6959889056       14.8051997738
  H        31.0091435080       22.7561396878       12.0341973438
  H        32.0213435410       24.6323376138       13.3291879531
  H        35.6930577574       24.1459427558       11.1419574740
  H        34.6604187336       22.2762961922        9.8403404758
  H        33.7055288896       23.5626976718       14.7537877274
  H        25.7011537706        8.5949880818       11.4178789207
  H        30.9507573809       22.6824054502        19.898749534138
  H        31.9748118669       24.5460265796        18.595985545638
  H        35.5999910895       24.1369795735        20.876495385038
  H        34.5572164164       22.2813311338        22.185506103538
  H        33.6792813374       23.5459500923        17.191611525738
  H        40.5980634241       17.0937073438        20.640825550138
  H        32.5236212824       14.1157408268        8.2840588163
  H        29.8620095831       12.5511770184        19.910546357938
  H        28.8261561282       10.6641090652        18.649952102038
  H        25.1893989658       11.1751140237        20.889838654138
  H        26.2434636951       13.0530154329        22.155894347838
  H        27.1185543890       11.7150534052        17.241037809238
  H        33.3406055149       14.0898733545        22.437404742338
  H        33.4064099898       14.4106970319        9.6158109031
  H        31.9835911220       18.4278685827        21.108748089138
  H        30.1831287379       14.2009908491        8.0572437232
  H        16.1184722708        2.9628479892       12.1298918178
  H        14.9529684461        4.8197325906       13.3226680481
  H        17.3648903792        7.6857299220       11.2097572880
  H        18.5140065286        5.8182511239       10.0099326985
  H        16.7532032165        5.7393118751       14.7714548905
  H        44.8277984142       32.1402601846       11.9773634140
  H        45.9369060832       30.3413258198       13.3067991900
  H        43.6826944091       27.3781594984       11.1519588388
  H        42.6000640579       29.1899653865        9.8094079092
  H        44.2304076234       29.4367708532       14.7689063248
  H        14.8496653122        8.5452312304       11.3632709151
  H        44.8993076194       32.2340540096        19.921023981138
  H        46.0239021907       30.4129601321        18.641414364838
  H        43.7641751915       27.4840550058        20.836147639638
  H        42.6465474387       29.3176877120        22.115201822838
  H        44.2684822705       29.4705236844        17.207911610738
  H        35.0719985003       26.6157437631        20.622512756538
  H        36.6050723164       35.1339760691        8.1805783653
  H        16.1440034317        3.0127130169        19.893491212438
  H        14.9742809223        4.8559505297        18.677708485238
  H        17.3949421345        7.7471791266        20.745604338238
  H        18.5420839392        5.8932536449        21.973365866838
  H        16.7645042713        5.7553836926        17.209014099038
  H        36.2788444258       34.4821174581        22.263212683838
  H        36.3808688294       34.2091409120        9.4997366580
  H        40.5798826760       33.2021635525        21.143490487738
  H        17.4708113666        1.9472317912        23.963862630638
  H        29.2733258687       19.4396258262       12.5739143853
  H        28.7584623593       18.9492131924        19.782944882938
  H        31.4014622871       15.7072420034        19.590455198738
  H        31.1518160690       15.5659787897       12.4961518879
  H        27.9835304809       18.0351591674       14.3183742916
  H        29.2346362729       15.5068135420       14.5046126689
  H        32.5123281396       17.2291230692        17.386027893138
  H        18.8526959870        0.8687869441       12.3351677252
  H        40.5280027425       35.2291682133        19.941907957738
  H        42.3235888335       34.4184173560        19.580776490338
  H        22.0877674275        0.6919736092       12.3516319185
  H        11.5968046225       18.7126310956       12.3824409347
  H        52.2644668392       18.4311314573        19.667387120238
  H        49.2546638634       16.4773334130        19.574711638438
  H        10.1495349786       15.7983637341       12.2930166002
  H        50.8495279568       17.6925175517        19.943931169138
  H        10.0454071471       17.3946595071       12.0520105854
  H        20.2136934476        0.0019640916       12.0421940766
  H        39.1835244439       36.1243226741        19.676089247938
 Ni        30.5669387527       17.7396798806        18.737684741038
 Ni        30.8626849813       16.3442843036        15.990515571638
 Ni        29.5838937120       18.2713589040        16.160019380738
 Ni        30.0131715162       17.3808725155       13.2378932771
  O        10.6498240515       14.3651403476        21.475516252438