     573
 i =      170, E =     -4762.8405039177
  C        11.8588017918       14.0535201116        21.731320380538
  C        12.4563363985       12.8906280924        21.012988027138
  C        11.7045537865       12.1714824989        20.071563475438
  C        12.2809510995       11.1092762975        19.379235950338
  C        13.6216241709       10.7397144230        19.606771155438
  C        14.3549246427       11.4435605421        20.579930902738
  C        13.7820123909       12.5085418314        21.271414624538
  C        14.2611306848        9.6490093702        18.833403512738
  C        14.2563621999        9.6568664048        17.411706271638
  C        13.7431458727       10.7589730120        16.657810360538
  C        49.1269562025       21.2331787398        21.869451885338
  C        48.5502123112       22.4011905845        21.142363597538
  C        49.3002300451       23.0685064685        20.161369592938
  C        48.7333013088       24.1076752892        19.428189381238
  C        47.4027856566       24.5093471216        19.656866346238
  C        46.6718520231       23.8604884043        20.670397277338
  C        47.2343034709       22.8155593628        21.399716741338
  C        46.7724908542       25.5870346212        18.859610771938
  C        46.7613442960       25.5573729693        17.437849767038
  C        47.2612512256       24.4422637858        16.694359870338
  C        14.8603158415        8.5705350038        16.698449534938
  C        14.8919656365        8.5971054494        19.510062358238
  C        49.1133256177       21.2034321927       10.1453597524
  C        48.5279068496       22.3648005454       10.8726045445
  C        49.2671007152       23.0255049242       11.8655363163
  C        48.6907514098       24.0600640263       12.5969967118
  C        47.3603571769       24.4568534449       12.3587134862
  C        46.6399801227       23.8119620974       11.3351588864
  C        47.2135575751       22.7760546752       10.6033903939
  C        46.7218609739       25.5318205270       13.1497191660
  C        46.7334931747       25.5281520199       14.5714252800
  C        47.2489395753       24.4289425226       15.3278082384
  C        40.6355229718       17.1360613312       15.3216003643
  C        40.6569892868       17.1640841920       12.5126215339
  C        11.8831032367       14.0865411712       10.2855209653
  C        12.4724712723       12.9108099669       10.9898082352
  C        11.7148578776       12.1773762754       11.9156579637
  C        12.2814754154       11.0949289473       12.5840615421
  C        13.6204071151       10.7214520415       12.3524713963
  C        14.3585101024       11.4372916737       11.3919793573
  C        13.7930560620       12.5184571983       10.7192971727
  C        14.2539803636        9.6246576261       13.1228586687
  C        14.2525851710        9.6445485463       14.5446971391
  C        13.7426284262       10.7534608003       15.2917658738
  C        22.5126127945        3.2445983500        21.742957695338
  C        23.2286562611        4.3493023645        21.043987907038
  C        24.2252111020        4.0681073181        20.097588028338
  C        24.8537681346        5.1068055701        19.415652210738
  C        24.5017715959        6.4491864286        19.659829721538
  C        23.5336088056        6.7218921005        20.643467945438
  C        22.9003052057        5.6849937134        21.323793139638
  C        25.1087494454        7.5549517010        18.883802996238
  C        25.0795008616        7.5482026305        17.462299904038
  C        24.3753817364        6.5499383443        16.716624194438
  C        38.2983415439       31.9280990921        21.841994164338
  C        37.5569820970       30.8392954349        21.140634388838
  C        36.5905388200       31.1465249062        20.170431222938
  C        35.9602503999       30.1288252582        19.459562527338
  C        36.2811676346       28.7775835089        19.695551046838
  C        37.2170260146       28.4776728644        20.703475237538
  C        37.8511999702       29.4944436441        21.413865872438
  C        35.6706363039       27.6902352872        18.895936587138
  C        35.7091528013       27.7071944209        17.474195822038
  C        36.4231949783       28.7076963194        16.741852384238
  C        25.7027952117        8.6176661974        16.741919514738
  C        25.7084369183        8.6287950030        19.554005386938
  C        38.3307163268       31.9615735618       10.1601290452
  C        37.6133463997       30.8897826692       10.9103974293
  C        36.6812629878       31.2020923825       11.9120864828
  C        36.0697271865       30.1869863434       12.6457338699
  C        36.3752665163       28.8329601229       12.4017234269
  C        37.2886732007       28.5304690115       11.3730702461
  C        37.9021308063       29.5422052176       10.6405993858
  C        35.7574878345       27.7362968412       13.1834450749
  C        35.7533101149       27.7309233151       14.6059566378
  C        36.4430753141       28.7198281809       15.3754339031
  C        46.1354689248       26.6207860322       15.2815573909
  C        46.0879380505       26.5801970917       12.4736617131
  C        22.4610809072        3.2560794608       10.2579268217
  C        23.1552382294        4.3645799378       10.9809400895
  C        24.1568374231        4.0782561973       11.9222891547
  C        24.7850446644        5.1081584543       12.6184042183
  C        24.4320932896        6.4543447613       12.3959346666
  C        23.4535954097        6.7338680676       11.4230801831
  C        22.8206628220        5.7042211009       10.7274639011
  C        25.0635700521        7.5522022300       13.1701435996
  C        25.0570124787        7.5460457695       14.5930445762
  C        24.3628266048        6.5499076216       15.3499575831
  C        26.6218463592       17.8624789907        21.775558344338
  C        25.3159589509       17.8998877458        21.047033045238
  C        25.0538390508       18.8953070232        20.092371228738
  C        23.8414786935       18.9119040254        19.405128398238
  C        22.8533413810       17.9369032565        19.651434592238
  C        23.1121220959       16.9630872197        20.634446148638
  C        24.3270694523       16.9404205013        21.318296295238
  C        21.5795091751       17.9219764019        18.887751936838
  C        21.5798116670       17.9021712258        17.465145119138
  C        22.7854979141       17.7781508198        16.704809138238
  C        34.4396522749       17.1946605522        21.909778971438
  C        35.7296763909       17.1506439946        21.161021115738
  C        35.9339514169       16.1861968044        20.161901391738
  C        37.1142167757       16.1764913727        19.424126462738
  C        38.1227343833       17.1290334295        19.667388758338
  C        37.9209056784       18.0743838975        20.690791566638
  C        36.7373189608       18.0903366240        21.424797046038
  C        39.3779738100       17.1383033458        18.883437904538
  C        39.3754077664       17.1538717569        17.462030368438
  C        38.1694105649       17.2761983716        16.702598848638
  C        20.3332824572       17.9230170307        16.756425563738
  C        20.3544664612       17.9254209300        19.569920423638
  C        34.4768837525       17.2425409192       10.1849076005
  C        35.7788388946       17.1667068027       10.9071907544
  C        35.9949941418       16.1818411234       11.8824569516
  C        37.1815513138       16.1640933698       12.6096095160
  C        38.1798538326       17.1302594660       12.3796664400
  C        37.9710860533       18.0891701125       11.3712442794
  C        36.7822759362       18.1122450418       10.6475309839
  C        39.4256788705       17.1504336987       13.1758669430
  C        39.3997252299       17.1603263863       14.5966007382
  C        38.1806572172       17.2771710843       15.3360695613
  C        35.1119054424       26.6547586203       15.3052763107
  C        35.1693665246       26.6669328569       12.4957661577
  C        26.5767281819       17.8284946697       10.3278002659
  C        25.2610276881       17.8768829587       11.0321991630
  C        24.9976757738       18.8794867258       11.9777315083
  C        23.7794566871       18.9045326418       12.6511341953
  C        22.7949675662       17.9273134374       12.4022556857
  C        23.0524077746       16.9503638271       11.4234791840
  C        24.2713531256       16.9228793189       10.7487842890
  C        21.5311480937       17.9069863461       13.1751367418
  C        21.5549573445       17.8933165908       14.5967121411
  C        22.7731918580       17.7740561711       15.3384983091
  C        14.0474601453       17.8290941666       10.2888024036
  C        15.3522516619       17.8867621321       11.0135157773
  C        15.6078816967       18.8880533698       11.9635385424
  C        16.8170777148       18.9090911632       12.6561641962
  C        17.8054782276       17.9318402048       12.4211248368
  C        17.5546979360       16.9551820622       11.4386632251
  C        16.3448892766       16.9293710796       10.7477417118
  C        19.0746898999       17.9142716143       13.1902871185
  C        19.0733461191       17.9080362326       14.6128852736
  C        17.8663518574       17.8078759763       15.3740318889
  C        46.8072436121       17.2197195433       10.1593983585
  C        45.5197609751       17.1616902707       10.9078554937
  C        45.3156131375       16.1875207964       11.8970340190
  C        44.1358636843       16.1739352266       12.6358642101
  C        43.1319511640       17.1346405443       12.4062477172
  C        43.3336877913       18.0888500304       11.3910303004
  C        44.5140905563       18.1064314194       10.6534009621
  C        41.8793935791       17.1486182341       13.1938112956
  C        41.8833608846       17.1483234826       14.6153430672
  C        43.0912821289       17.2421417590       15.3757357036
  C        20.3200862973       17.9170840377       15.3214669675
  C        20.2991372726       17.8971365977       12.5082963462
  C        46.7857475667       17.2309149254        21.880186789138
  C        45.4815670945       17.1257559826        21.167135026738
  C        45.2619811182       16.1301596781        20.203360129238
  C        44.0735568989       16.1068872931        19.477867962538
  C        43.0760553744       17.0760143993        19.699771939138
  C        43.2852088130       18.0400324324        20.703411550038
  C        44.4748453008       18.0699341786        21.423652001938
  C        41.8314263396       17.1041483415        18.901395551738
  C        41.8590195440       17.1242282122        17.480776421738
  C        43.0797804949       17.2279633623        16.742149231238
  C        46.1532774786       26.6372329940        16.716110655038
  C        46.1626110727       26.6561887871        19.525747222038
  C        14.0460793621       17.8310657667        21.697949120938
  C        15.3672081217       17.9032804119        21.007054388638
  C        15.6425680585       18.9172190997        20.077344140838
  C        16.8719156260       18.9521064396        19.422803373338
  C        17.8541461339       17.9721401025        19.671624646938
  C        17.5855832218       16.9872169480        20.639596568738
  C        16.3583361540       16.9518178237        21.297727571138
  C        19.1218214103       17.9451226271        18.902886211938
  C        19.0980859102       17.9224996022        17.481256452338
  C        17.8784332273       17.8144810930        16.740092737538
  C        28.8130700855       14.0940672455       10.3937628332
  C        28.2006453745       12.9188734760       11.0797469463
  C        28.9257421768       12.1711608172       12.0194461830
  C        28.3257512052       11.0963769780       12.6710818206
  C        26.9867667162       10.7441708180       12.4059157441
  C        26.2837639022       11.4712072973       11.4286407499
  C        26.8811609737       12.5467589013       10.7763026714
  C        26.3172933537        9.6641240772       13.1669221151
  C        26.3062363991        9.6901037038       14.5879742351
  C        26.8116455882       10.8023389544       15.3333120018
  C        32.1778655323       21.2443164162       10.1495019836
  C        32.7676029800       22.4131864974       10.8681755031
  C        32.0133137843       23.0975147469       11.8337979057
  C        32.5801242549       24.1396756923       12.5614109893
  C        33.9175494840       24.5251581554       12.3460393564
  C        34.6544473790       23.8597375808       11.3481046095
  C        34.0896137556       22.8130119897       10.6215443030
  C        34.5433775547       25.6002022531       13.1502650987
  C        34.5218569727       25.5733600239       14.5720865912
  C        34.0009755492       24.4612831524       15.3064143366
  C        25.6958826518        8.6128740348       15.3072204894
  C        25.6791635120        8.6142220791       12.4936833302
  C        32.0769683305       21.1997105129        21.866622828638
  C        32.6457705376       22.3616724706        21.119443810738
  C        31.9057367353       23.0232261104        20.127117063738
  C        32.4777878142       24.0637054570        19.396454323738
  C        33.8035376260       24.4748625363        19.640224956538
  C        34.5247894039       23.8275348643        20.661891267838
  C        33.9583665639       22.7827500885        21.386650008438
  C        34.4433658593       25.5620127798        18.861869434638
  C        34.4688916097       25.5548348826        17.439804210338
  C        33.9743485745       24.4533293960        16.672766873238
  C        40.6228886217       17.1282386646        16.755521565938
  C        40.6000252015       17.1298296275        19.564982041638
  C        28.7500803736       14.0685624762        21.808463443638
  C        28.1388586236       12.9229768221        21.069056920438
  C        28.8737521201       12.2291121200        20.095678500938
  C        28.2936724930       11.1718981187        19.398363221938
  C        26.9623120425       10.7824935611        19.648571850138
  C        26.2442408043       11.4648189512        20.648418125238
  C        26.8229057488       12.5222331448        21.347802856738
  C        26.3202453648        9.6915091606        18.876361391138
  C        26.3084513995        9.7045263700        17.454428058738
  C        26.8101560816       10.8108011206        16.699138463138
  C        18.1354708685        3.1810434562       10.3171793047
  C        17.4062428907        4.2782528946       11.0157980571
  C        16.3904608985        3.9999357529       11.9432737387
  C        15.7427723690        5.0399416168       12.6067465526
  C        16.0947781334        6.3836574779       12.3671158703
  C        17.0842385907        6.6531376018       11.4034179059
  C        17.7333037918        5.6157720058       10.7383809363
  C        15.4704310521        7.4913429368       13.1301530599
  C        15.4856003121        7.4905682673       14.5518653162
  C        16.1871707671        6.4969661584       15.3050397397
  C        42.9458579570       31.8595656344       10.0728577174
  C        43.6462254887       30.7718691030       10.8167973382
  C        44.5915187550       31.0932174276       11.8030888674
  C        45.1972322377       30.0876837823       12.5507674033
  C        44.8710747195       28.7345818525       12.3357173957
  C        43.9455536206       28.4202232276       11.3222195893
  C        43.3367384598       29.4253495625       10.5741553131
  C        45.4886384144       27.6552846530       13.1389263629
  C        45.4927521286       27.6809021009       14.5606247663
  C        44.8056634345       28.6889347310       15.3072690275
  C        14.8565801923        8.5630246143       15.2642308825
  C        14.8752493346        8.5631686143       12.4515590077
  C        42.9464866942       31.9616798668        21.798784100638
  C        43.6917972269       30.8855444751        21.085392204038
  C        44.6561843804       31.1914743552        20.112890166338
  C        45.2777354782       30.1718964927        19.395175375238
  C        44.9542087333       28.8215479963        19.632997984938
  C        44.0210037345       28.5238747025        20.644041964838
  C        43.3927111519       29.5406252060        21.356218354238
  C        45.5631943958       27.7241419683        18.847718356938
  C        45.5333527401       27.7174065847        17.426419007238
  C        44.8269791973       28.7075935885        16.673454669338
  C        35.0871682854       26.6441991806        16.740425589438
  C        35.0558315016       26.6167962901        19.550933134238
  C        18.1486342868        3.2470303290        21.696364427338
  C        17.4300991003        4.3438241751        20.987085859538
  C        16.4147950328        4.0525829614        20.063595365838
  C        15.7665066486        5.0832358068        19.388238443138
  C        16.1212735539        6.4284624897        19.610901773638
  C        17.1127812154        6.7118119090        20.568034974638
  C        17.7604422519        5.6828828130        21.247783341638
  C        15.4907459601        7.5241477597        18.838469783438
  C        15.4965672186        7.5074571022        17.417339007038
  C        16.1933671081        6.5057784137        16.670644343138
  H        10.6723417773       12.4654298443        19.894728868538
  H        11.6946147475       10.5506050307        18.652881394138
  H        15.3920807409       11.1692570007        20.761393102038
  H        14.3516057619       13.0720214216        22.006553382138
  H        13.3761346468       11.6310898069        17.191134667038
  H        50.3229271167       22.7484361829        19.976605421538
  H        49.3197945101       24.6229406249        18.670616273638
  H        45.6423859347       24.1613143953        20.853621516338
  H        46.6633357114       22.2903030221        22.161832641438
  H        47.6298572836       23.5759216011        17.236056034338
  H        14.8724483190        8.5884560279        20.598371799638
  H        50.2871494257       22.7026531745       12.0604450162
  H        49.2691483556       24.5755228486       13.3604958423
  H        45.6106018314       24.1092546076       11.1460382817
  H        46.6527943720       22.2539056522        9.8317766437
  H        47.6077543666       23.5518410886       14.7969043742
  H        40.6646134353       17.1311045837       11.4248576100
  H        48.6871419829       14.0949646892        23.789844424238
  H        10.6812898618       12.4662371121       12.0928371547
  H        11.6896280697       10.5243234239       13.2965423957
  H        15.3940768122       11.1597148637       11.2063363483
  H        14.3655426462       13.0881024453        9.9910979855
  H        13.3758325227       11.6220824166       14.7531195117
  H        47.9302776337       14.2183715307        9.7108397186
  H        47.7801190922       14.3738531732        22.485079726838
  H        49.0849097951       18.5527108442       10.8675802651
  H        10.4162540358       14.1342579782        7.9986449703
  H        24.4847987414        3.0292110548        19.906608843438
  H        25.6265170784        4.8882691620        18.681806858838
  H        23.2544844878        7.7552457953        20.838633354338
  H        22.1306098834        5.8865768139        22.064801285438
  H        23.8137862771        5.7937205611        17.257339131638
  H        36.3582750183       32.1907279897        19.974917627838
  H        35.2118129105       30.3720171920        18.708525181338
  H        37.4731263800       27.4374798416        20.894079427838
  H        38.5993502369       29.2694370369        22.170365421038
  H        36.9866378044       29.4556601630        17.291993774138
  H        25.7449043146        8.6113432323        20.641772363138
  H        36.4553440761       32.2470293471       12.1123367035
  H        35.3402301234       30.4361360624       13.4132181461
  H        37.5385047252       27.4895992119       11.1782550312
  H        38.6279438547       29.3124259021        9.8642804048
  H        37.0227185267       29.4768000183       14.8548493000
  H        46.1094758011       26.5876368623       11.3856282530
  H        44.6683271132       35.1162351249        23.803804237538
  H        24.4339315224        3.0399317538       12.0899161811
  H        25.5653578948        4.8788546103       13.3409702946
  H        23.1693902057        7.7684981165       11.2420375716
  H        22.0494879798        5.9176424300        9.9908884734
  H        23.7909652596        5.7943070452       14.8191535443
  H        44.9540275402       34.3906006516        9.6953163891
  H        44.9020501245       34.2069192386        22.480462245838
  H        40.6666554986       33.2095030121       10.8533395313
  H        23.1503897803        1.9580240096        8.0053464294
  H        25.8114827463       19.6533760234        19.906959448138
  H        23.6438063577       19.6902308915        18.671132705138
  H        22.3617389868       16.2005387534        20.833220211638
  H        24.5370829042       16.1748339681        22.061594348638
  H        23.7265609272       17.6550744237        17.233179322838
  H        35.1521273281       15.4542194603        19.973935619938
  H        37.2721441943       15.4206786055        18.657850390138
  H        38.6920550040       18.8177768644        20.882122670438
  H        36.5648172785       18.8336445662        22.199734582838
  H        37.2295457505       17.3992488334        17.232901469338
  H        20.3613000979       17.9648905608        20.657819623038
  H        35.2148245287       15.4473194609       12.0671308747
  H        37.3487663992       15.3984156179       13.3639879192
  H        38.7369652935       18.8403694438       11.1897376202
  H        36.5981271931       18.8698076415        9.8895099734
  H        37.2495028719       17.4002341215       14.7904471376
  H        35.1524920819       26.6919438039       11.4078257925
  H        28.5051706626       21.0781791516        23.968096895638
  H        25.7605259833       19.6312333897       12.1671456372
  H        23.5754615385       19.6857173203       13.3802345540
  H        22.3006548401       16.1891357532       11.2251045543
  H        24.4858486080       16.1564231118       10.0079176706
  H        23.7047657936       17.6482381950       14.7948190932
  H        29.0128755403       21.7154517643        9.7571557472
  H        29.1613207687       21.7409297885        22.620084171938
  H        32.1204967087       18.5424245875       10.9955539886
  H        27.4048225649       19.0732388959        8.0959375005
  H        14.8483954192       19.6455141545       12.1440207625
  H        17.0110384388       19.6918224320       13.3864022195
  H        18.3071497396       16.1927544615       11.2476415023
  H        16.1402425216       16.1616970425       10.0052569550
  H        16.9237986427       17.6932119142       14.8466612519
  H        46.0982925269       15.4549191534       12.0794082258
  H        43.9764484022       15.4108845169       13.3945280536
  H        42.5657862437       18.8382730773       11.2108700606
  H        44.6877251223       18.8569246747        9.8858452924
  H        44.0336434138       17.3570620364       14.8477896306
  H        20.2933085109       17.9299037225       11.4202366672
  H        46.0384719518       15.3900615953        20.023797439038
  H        43.9055528552       15.3352698818        18.729701716138
  H        42.5192937591       18.7920335743        20.881192248038
  H        44.6590520188       18.8336973193        22.175132888038
  H        44.0133796879       17.3307164989        17.287626035238
  H        46.1996243917       26.6827951516        20.613185697738
  H        52.7412766466       21.0626418833        8.1947154032
  H        14.8833747585       19.6719738625        19.884271423638
  H        17.0841323159       19.7415968179        18.705039724938
  H        18.3348739539       16.2240959488        20.839936079438
  H        16.1362708859       16.1782890122        22.028838405138
  H        16.9448911789       17.7049706910        17.283779925538
  H        52.3226197681       21.6732766596        22.283936525138
  H        52.0131812897       21.7020004326        9.4956096228
  H        49.0678608696       18.6077165537        21.193813368638
  H        13.2479120794       19.0159782384        23.966944612438
  H        29.9583389771       12.4457288995       12.2233994355
  H        28.8894423959       10.5161222183       13.3984599865
  H        25.2493324331       11.2090380482       11.2161671713
  H        26.3355181612       13.1292560197       10.0380610010
  H        27.1746635021       11.6707507504       14.7920491406
  H        30.9863165897       22.7871176071       12.0101589448
  H        31.9893868489       24.6691857971       13.3057232009
  H        35.6896098968       24.1473139030       11.1757063514
  H        34.6647090877       22.2741850297        9.8720251234
  H        33.6461552769       23.5939366738       14.7570883192
  H        25.7078845517        8.5953984061       11.4056271275
  H        30.8829113941       22.7065610196        19.935324065838
  H        31.8956813412       24.5765532945        18.633749891038
  H        35.5507661770       24.1324398361        20.857603843438
  H        34.5223521592       22.2627426992        22.157302162738
  H        33.5988732401       23.5795275735        17.197406901938
  H        40.5913168504       17.0886363744        20.652498961638
  H        32.5064577691       14.1450229817        8.2543810252
  H        29.9007426165       12.5318161130        19.904167751638
  H        28.8719001510       10.6295550304        18.653383462038
  H        25.2139191041       11.1776338922        20.848195636438
  H        26.2650728158       13.0642822036        22.107723757338
  H        27.1709873318       11.6858248929        17.231805620738
  H        33.3105934848       14.2260805840        22.459151765238
  H        33.4109148448       14.4094143975        9.5951780242
  H        32.1116931044       18.4985138040        21.211379510638
  H        30.2211187663       14.1893207362        8.0851548830
  H        16.1183093703        2.9634514392       12.1296345479
  H        14.9532689907        4.8206182769       13.3223630011
  H        17.3668042293        7.6859905847       11.2103798610
  H        18.5154269710        5.8184390802       10.0106311270
  H        16.7538481357        5.7397091509       14.7715523545
  H        44.8276301301       32.1403146104       11.9774242943
  H        45.9369443578       30.3414906613       13.3068446562
  H        43.6831752566       27.3781153965       11.1518513739
  H        42.6004457856       29.1899795692        9.8091884891
  H        44.2303419456       29.4367357051       14.7689786227
  H        14.8516509280        8.5465184181       11.3633341931
  H        44.8995728717       32.2341649019        19.921289850238
  H        46.0244967398       30.4131671146        18.641808009738
  H        43.7643349973       27.4841179495        20.835851476438
  H        42.6464619014       29.3178083349        22.114903175838
  H        44.2685369930       29.4705329129        17.208030802038
  H        35.0094984244       26.6268019596        20.638322564038
  H        36.6052478084       35.1341127367        8.1805570416
  H        16.1436218542        3.0130247557        19.893923368938
  H        14.9741155209        4.8564516663        18.678209943438
  H        17.3964566377        7.7472534330        20.744808801438
  H        18.5434696622        5.8933562280        21.972375509538
  H        16.7648988696        5.7556112723        17.209078610538
  H        36.2788892759       34.4822753869        22.262922659738
  H        36.3811559240       34.2089731001        9.4993479515
  H        40.5795543021       33.2021595263        21.143665757938
  H        17.4710290612        1.9474738010        23.963831008138
  H        29.2099832552       19.3051152223       12.5727472140
  H        29.5907188406       19.5520419803        19.613412307538
  H        31.7668154790       15.7768471007        19.577688118138
  H        31.5405812403       15.6778772807       12.5932329735
  H        28.2631497322       17.7378708568       14.6349754591
  H        29.7070735371       15.3431401264       14.4943464132
  H        31.3451812690       19.7497677992        17.593419203938
  H        32.7357682291       17.4064075827        17.463113207038
  H        28.9545001066       16.6630569002        17.071584483138
  H        18.8524130744        0.8684854897       12.3351722184
  H        40.5281892982       35.2288321548        19.941816913138
  H        42.3243495832       34.4190937738        19.580111505538
  H        22.0872552405        0.6919107444       12.3517275681
  H        11.5966667921       18.7130391713       12.3827412123
  H        52.2650877723       18.4313197417        19.667019952838
  H        49.2552826054       16.4770393096        19.574309494038
  H        10.1503082327       15.7982325045       12.2928105106
  H        50.8502915860       17.6924265662        19.944015961338
  H        10.0461630496       17.3945038464       12.0519230274
  H        20.2135410545        0.0018337628       12.0421054695
  H        39.1838525909       36.1244298512        19.676243626038
 Ni        30.9424105628       17.8183332148        18.985741623438
 Ni        31.0749448687       16.4228559672        16.155824586138
 Ni        29.8472752026       18.6912474472        16.073304502638