     573
 i =       84, E =     -4762.8403019828
  C        11.8587871590       14.0535289687        21.731311841938
  C        12.4563235269       12.8906299361        21.012988247438
  C        11.7045426289       12.1714813680        20.071565552538
  C        12.2809398792       11.1092769239        19.379235190838
  C        13.6216079121       10.7397040529        19.606781737638
  C        14.3549095205       11.4435525618        20.579940580238
  C        13.7819936656       12.5085304193        21.271427405338
  C        14.2611314517        9.6490117089        18.833408182138
  C        14.2563472800        9.6568615713        17.411710477638
  C        13.7431395423       10.7589710623        16.657813336638
  C        49.1269232456       21.2331579616        21.869425183638
  C        48.5501995481       22.4011957213        21.142372674538
  C        49.3002062729       23.0684843249        20.161349870738
  C        48.7332865228       24.1076618943        19.428178202238
  C        47.4027713036       24.5093319901        19.656856380238
  C        46.6718418265       23.8604970581        20.670403983638
  C        47.2342849226       22.8155574205        21.399712511038
  C        46.7725022819       25.5870387262        18.859609571038
  C        46.7613169182       25.5573594957        17.437849861038
  C        47.2612415137       24.4422625445        16.694354503438
  C        14.8603433875        8.5705563866        16.698448985638
  C        14.8919553294        8.5970978029        19.510064590838
  C        49.1132747749       21.2034222193       10.1453559646
  C        48.5278783001       22.3648024216       10.8725875894
  C        49.2670714084       23.0254930003       11.8655317111
  C        48.6907323638       24.0600529999       12.5969970457
  C        47.3603452324       24.4568600936       12.3587030148
  C        46.6399594015       23.8119770229       11.3351500439
  C        47.2135312729       22.7760698110       10.6033784238
  C        46.7218429433       25.5318166542       13.1497150090
  C        46.7335122708       25.5281663429       14.5714206185
  C        47.2489062904       24.4289320235       15.3278032682
  C        40.6341080735       17.1329880923       15.3206536715
  C        40.6552162689       17.1616075906       12.5115332756
  C        11.8830726492       14.0865182421       10.2854949968
  C        12.4724642706       12.9108088340       10.9898022545
  C        11.7148605175       12.1773756586       11.9156592727
  C        12.2814806967       11.0949357055       12.5840699891
  C        13.6204105897       10.7214605165       12.3524746675
  C        14.3585068330       11.4372874524       11.3919680908
  C        13.7930429346       12.5184425725       10.7192787569
  C        14.2539791384        9.6246630793       13.1228588614
  C        14.2526055794        9.6445642959       14.5446954990
  C        13.7426125308       10.7534547251       15.2917695472
  C        22.5125978635        3.2445447100        21.742977406238
  C        23.2287210226        4.3491625604        21.044003346838
  C        24.2254802215        4.0677763345        20.097883103438
  C        24.8542406761        5.1063398668        19.415962124738
  C        24.5022352217        6.4487546390        19.659889189038
  C        23.5338290391        6.7216668599        20.643224681238
  C        22.9003383240        5.6848911042        21.323561945038
  C        25.1095533565        7.5542907436        18.883846744638
  C        25.0806760978        7.5472208869        17.462345102038
  C        24.3763889647        6.5490276147        16.716746978738
  C        38.2982823283       31.9280333529        21.841931964038
  C        37.5568150831       30.8392741703        21.140509687538
  C        36.5903778457       31.1466167779        20.170311924638
  C        35.9599673760       30.1290321094        19.459353055338
  C        36.2807003021       28.7777036390        19.695176108438
  C        37.2165419327       28.4776887312        20.703111881538
  C        37.8508296017       29.4943421445        21.413614135238
  C        35.6699957468       27.6904051659        18.895520041138
  C        35.7082736063       27.7073649972        17.473742262438
  C        36.4220975980       28.7079512630        16.741311464338
  C        25.7044336186        8.6163611755        16.741911975738
  C        25.7091813637        8.6281333163        19.553994634938
  C        38.3306323929       31.9615262598       10.1600955842
  C        37.6131413297       30.8896721163       10.9101958184
  C        36.6806692386       31.2018168998       11.9115855968
  C        36.0690697662       30.1866159868       12.6450706221
  C        36.3749039253       28.8326094301       12.4012223619
  C        37.2886635727       28.5302829299       11.3728272127
  C        37.9021505850       29.5421123323       10.6404997131
  C        35.7572161189       27.7358422533       13.1829155102
  C        35.7526289911       27.7307597768       14.6054334952
  C        36.4420397699       28.7199347520       15.3748879364
  C        46.1354422912       26.6207736185       15.2815571885
  C        46.0879485452       26.5802106551       12.4736614834
  C        22.4610595146        3.2559694125       10.2578885355
  C        23.1553222416        4.3643021087       10.9809502667
  C        24.1569706481        4.0776491198       11.9221356911
  C        24.7853803989        5.1073337720       12.6183361736
  C        24.4325548239        6.4535644981       12.3960573990
  C        23.4539536084        6.7334275768       11.4234156558
  C        22.8208152301        5.7039898307       10.7277053249
  C        25.0643932489        7.5511482359       13.1702353089
  C        25.0582291685        7.5448452100       14.5931238541
  C        24.3638336577        6.5488983186       15.3500829321
  C        26.6212170155       17.8625034029        21.775332255838
  C        25.3155365631       17.8995362581        21.046506930938
  C        25.0533500888       18.8949280693        20.091854734038
  C        23.8409669155       18.9114449876        19.404680842138
  C        22.8529156111       17.9364090808        19.651146776638
  C        23.1118008129       16.9625382915        20.634049959538
  C        24.3268034824       16.9399285671        21.317778129738
  C        21.5789996835       17.9215314738        18.887682244538
  C        21.5791935908       17.9015471439        17.465115591438
  C        22.7847936251       17.7771471590        16.704707583738
  C        34.4389519384       17.1953857470        21.910471895738
  C        35.7290731406       17.1509514018        21.161548736538
  C        35.9330666270       16.1862206369        20.162604280938
  C        37.1131967843       16.1759285177        19.424612725038
  C        38.1221315394       17.1281585798        19.667341349338
  C        37.9207135787       18.0736756252        20.690736347038
  C        36.7372167945       18.0902303485        21.424983582038
  C        39.3772143592       17.1367995899        18.882956832938
  C        39.3743643172       17.1513401186        17.461445388538
  C        38.1682388438       17.2727417601        16.702015544338
  C        20.3326069225       17.9225540992        16.756568025338
  C        20.3541332807       17.9252607613        19.570045545238
  C        34.4725109087       17.2425527097       10.1864227079
  C        35.7756061960       17.1646702875       10.9068573619
  C        35.9925702699       16.1789221553       11.8810958379
  C        37.1795601581       16.1607008326       12.6077532917
  C        38.1777438233       17.1272405603       12.3785994308
  C        37.9682347057       18.0869064902       11.3709787172
  C        36.7790409011       18.1104829997       10.6477877101
  C        39.4238498966       17.1473570946       13.1748393108
  C        39.3981804409       17.1568924768       14.5956944486
  C        38.1792342974       17.2732168892       15.3354545172
  C        35.1112877546       26.6545840472       15.3047994593
  C        35.1697322148       26.6660685858       12.4952691055
  C        26.5739745109       17.8274991474       10.3268945467
  C        25.2586898625       17.8754554202       11.0313598496
  C        24.9953616379       18.8782542394       11.9766983980
  C        23.7774880996       18.9030198053       12.6505325004
  C        22.7934103618       17.9253074774       12.4021324181
  C        23.0507318447       16.9481762516       11.4235073952
  C        24.2694194797       16.9209276599       10.7484029599
  C        21.5298916983       17.9051560728       13.1752601265
  C        21.5539962932       17.8919853941       14.5967934523
  C        22.7723332134       17.7727046477       15.3384032492
  C        14.0471723926       17.8290756608       10.2887634743
  C        15.3517930951       17.8865590115       11.0136377068
  C        15.6075830352       18.8881570512       11.9632622677
  C        16.8166319668       18.9089559558       12.6560993446
  C        17.8045326904       17.9311250051       12.4215586049
  C        17.5536224699       16.9541445661       11.4394857622
  C        16.3439830469       16.9286068428       10.7483422288
  C        19.0736248915       17.9133294807       13.1906998075
  C        19.0724272548       17.9075353925       14.6132546310
  C        17.8654611891       17.8080189258       15.3745003757
  C        46.8069691499       17.2196169616       10.1593812945
  C        45.5192566260       17.1612411190       10.9076215548
  C        45.3146796959       16.1863332893       11.8960237976
  C        44.1345736918       16.1720370211       12.6343321907
  C        43.1305632178       17.1328013689       12.4051699204
  C        43.3328199643       18.0878856029       11.3908524679
  C        44.5135600776       18.1061246048       10.6536694904
  C        41.8777568888       17.1461138616       13.1925996016
  C        41.8818552326       17.1454510886       14.6141843659
  C        43.0898776410       17.2393149883       15.3744562781
  C        20.3192377872       17.9163201723       15.3216650236
  C        20.2978957746       17.8954681066       12.5085286247
  C        46.7855208912       17.2309339245        21.879943880438
  C        45.4813846207       17.1256698901        21.166562932038
  C        45.2617308722       16.1296237583        20.203214599538
  C        44.0733284422       16.1059563461        19.477608128738
  C        43.0756826342       17.0751415121        19.698814622338
  C        43.2849660011       18.0397031807        20.701957274738
  C        44.4745632989       18.0699765954        21.422351630138
  C        41.8308248934       17.1026917637        18.900510022538
  C        41.8580322650       17.1219486604        17.479811407038
  C        43.0786331272       17.2253512667        16.740893709638
  C        46.1533115246       26.6372525525        16.716109737638
  C        46.1626089943       26.6561841423        19.525746011838
  C        14.0459820262       17.8310952544        21.698055278538
  C        15.3671250944       17.9034066480        21.007278166338
  C        15.6424806262       18.9174805976        20.077734137738
  C        16.8718294440       18.9524061818        19.423231654538
  C        17.8539438480       17.9723256125        19.671964930938
  C        17.5854168872       16.9873022739        20.639821170438
  C        16.3581815677       16.9518846634        21.297933569338
  C        19.1214877469       17.9451476319        18.903119129238
  C        19.0975130790       17.9224672290        17.481520267738
  C        17.8777131219       17.8147867481        16.740545305038
  C        28.8120178605       14.0933272660       10.3939074148
  C        28.2002783780       12.9179485785       11.0796212063
  C        28.9264138284       12.1694442917       12.0179121566
  C        28.3268969027       11.0944339779       12.6695613227
  C        26.9874869809       10.7429170324       12.4057520117
  C        26.2834183905       11.4707524783       11.4298349098
  C        26.8803215713       12.5465002616       10.7774394368
  C        26.3184972930        9.6627146478       13.1668661135
  C        26.3081122003        9.6884834834       14.5878957623
  C        26.8141030906       10.8005190803       15.3331138957
  C        32.1776080613       21.2424864363       10.1494934693
  C        32.7688183517       22.4113358131       10.8676148786
  C        32.0142969485       23.0963066369       11.8326451286
  C        32.5808714178       24.1386279725       12.5601776719
  C        33.9184895637       24.5238034550       12.3454358021
  C        34.6557407644       23.8576974134       11.3481935968
  C        34.0910663568       22.8106804701       10.6216855005
  C        34.5438265699       25.5992411217       13.1497251706
  C        34.5216412091       25.5729209192       14.5716028596
  C        34.0003957842       24.4611077131       15.3060682016
  C        25.6975440512        8.6114440866       15.3072258247
  C        25.6798923773        8.6131220881       12.4936770537
  C        32.0768604639       21.1994616891        21.866625094738
  C        32.6456037488       22.3615354413        21.119429318438
  C        31.9054240445       23.0232934399        20.127326673838
  C        32.4773357941       24.0637700743        19.396548668438
  C        33.8031684904       24.4748496363        19.639998434338
  C        34.5245573554       23.8274433937        20.661535095738
  C        33.9582748676       22.7825886437        21.386340937138
  C        34.4428167564       25.5620669861        18.861533059238
  C        34.4681246052       25.5549118858        17.439441895438
  C        33.9734822406       24.4534347688        16.672426027138
  C        40.6217424190       17.1255245936        16.754690448438
  C        40.5994703198       17.1287857702        19.564248054338
  C        28.7500096133       14.0679264133        21.808613707638
  C        28.1389000949       12.9223718831        21.069158789738
  C        28.8737968287       12.2294830042        20.095099960538
  C        28.2941383797       11.1720634677        19.397795969338
  C        26.9631627897       10.7816436536        19.648519787938
  C        26.2450983243       11.4631002922        20.648976502438
  C        26.8233892812       12.5206384092        21.348479070138
  C        26.3214245837        9.6905291092        18.876283441738
  C        26.3101682110        9.7032220125        17.454338356338
  C        26.8124458625       10.8091607799        16.698933026038
  C        18.1354402324        3.1810408247       10.3171499495
  C        17.4062376336        4.2782607345       11.0157920434
  C        16.3904472119        3.9999431038       11.9432583849
  C        15.7427677870        5.0399515019       12.6067374936
  C        16.0947851272        6.3836641421       12.3671129155
  C        17.0842401289        6.6531443286       11.4034100565
  C        17.7332980269        5.6157782854       10.7383654041
  C        15.4704370299        7.4913483133       13.1301524933
  C        15.4856330447        7.4905913963       14.5518650619
  C        16.1871839314        6.4969749792       15.3050397756
  C        42.9458518881       31.8595582817       10.0728492237
  C        43.6462173574       30.7718669525       10.8167958791
  C        44.5914983706       31.0932234983       11.8030965884
  C        45.1972158353       30.0876928924       12.5507776285
  C        44.8710804431       28.7345865190       12.3357143632
  C        43.9455621094       28.4202235664       11.3222142886
  C        43.3367435053       29.4253460692       10.5741481592
  C        45.4886316070       27.6552860651       13.1389281027
  C        45.4927771749       27.6809224490       14.5606261676
  C        44.8056560981       28.6889330340       15.3072707521
  C        14.8565725674        8.5630258628       15.2642299320
  C        14.8752644000        8.5631815912       12.4515630594
  C        42.9464830690       31.9616710550        21.798782491038
  C        43.6918309986       30.8855397775        21.085422560338
  C        44.6561923669       31.1914780199        20.112896711538
  C        45.2777446384       30.1719016656        19.395180141138
  C        44.9542249589       28.8215519655        19.633007810738
  C        44.0210525086       28.5238724561        20.644081055138
  C        43.3927559039       29.5406198942        21.356259213638
  C        45.5632203535       27.7241559985        18.847720053938
  C        45.5333415186       27.7173996113        17.426420157238
  C        44.8269936463       28.7076062794        16.673456801738
  C        35.0863566809       26.6442638967        16.739991992638
  C        35.0553486714       26.6168660530        19.550535877238
  C        18.1486307032        3.2470172861        21.696366519638
  C        17.4300900605        4.3438177564        20.987094523338
  C        16.4147843403        4.0525805513        20.063605964638
  C        15.7665047297        5.0832362085        19.388241764538
  C        16.1212693645        6.4284629824        19.610905705938
  C        17.1127857738        6.7118051490        20.568032052838
  C        17.7604394450        5.6828751416        21.247787541238
  C        15.4907564642        7.5241534759        18.838466879738
  C        15.4965671686        7.5074593025        17.417335395238
  C        16.1933930785        6.5057946836        16.670644720938
  H        10.6723336994       12.4654313626        19.894720255038
  H        11.6946040514       10.5506027657        18.652882344138
  H        15.3920618986       11.1692382175        20.761413841838
  H        14.3515816932       13.0720077318        22.006572519838
  H        13.3761009043       11.6310763468        17.191137325638
  H        50.3228999257       22.7484053492        19.976584193438
  H        49.3197737802       24.6229101708        18.670589600738
  H        45.6423759464       24.1613243279        20.853624156538
  H        46.6633143628       22.2903128961        22.161834515338
  H        47.6298152239       23.5759059180        17.236050297838
  H        14.8724319119        8.5884430554        20.598375106238
  H        50.2871146352       22.7026268194       12.0604437128
  H        49.2691306892       24.5755026310       13.3605010409
  H        45.6105844767       24.1092794701       11.1460288607
  H        46.6527602569       22.2539310030        9.8317629001
  H        47.6077154619       23.5518275593       14.7969003951
  H        40.6628079286       17.1292147515       11.4237447499
  H        48.6871331246       14.0949657297        23.789842252538
  H        10.6812951207       12.4662385280       12.0928462009
  H        11.6896358586       10.5243297818       13.2965513804
  H        15.3940670547       11.1596959183       11.2063113663
  H        14.3655172371       13.0880740847        9.9910591715
  H        13.3758063086       11.6220722404       14.7531253106
  H        47.9302571689       14.2183223056        9.7108360389
  H        47.7800919272       14.3738001378        22.485067301138
  H        49.0844553649       18.5526487367       10.8675688163
  H        10.4162105814       14.1342669532        7.9986545546
  H        24.4850499696        3.0288401562        19.907112722838
  H        25.6271553019        4.8876981702        18.682324381238
  H        23.2546851226        7.7550626393        20.838146123038
  H        22.1304675623        5.8865862684        22.064358738938
  H        23.8145588643        5.7930229051        17.257512717538
  H        36.3581909023       32.1908503707        19.974857908338
  H        35.2115340969       30.3724205568        18.708373679838
  H        37.4725379557       27.4374652130        20.893692260538
  H        38.5989208744       29.2691399175        22.170119671638
  H        36.9853909168       29.4560800406        17.291380900638
  H        25.7452740945        8.6109458760        20.641775492138
  H        36.4545162763       32.2467161681       12.1117801610
  H        35.3392953593       30.4356911301       13.4123180659
  H        37.5387418986       27.4894529394       11.1781142280
  H        38.6282254239       29.3124008611        9.8644060229
  H        37.0215677369       29.4769852103       14.8542901220
  H        46.1094747561       26.5876457539       11.3856283362
  H        44.6683348424       35.1162370653        23.803789370538
  H        24.4339262524        3.0392526728       12.0895192992
  H        25.5657769775        4.8778591361       13.3407554857
  H        23.1698821793        7.7681353462       11.2426047392
  H        22.0495666064        5.9175882635        9.9912578373
  H        23.7917489455        5.7934337141       14.8193274544
  H        44.9540215745       34.3905814693        9.6952962054
  H        44.9020570914       34.2069161965        22.480455131238
  H        40.6665731626       33.2094197716       10.8532880829
  H        23.1503934493        1.9580055564        8.0052999941
  H        25.8109149374       19.6531087545        19.906560599838
  H        23.6431352592       19.6897389421        18.670696232238
  H        22.3614589081       16.1999553625        20.832844236238
  H        24.5369904609       16.1743445409        22.061029879538
  H        23.7258739569       17.6539939735        17.233026382838
  H        35.1511824941       15.4542916401        19.974822210138
  H        37.2706047695       15.4198050374        18.658544765738
  H        38.6921659613       18.8167876317        20.881946839438
  H        36.5652291593       18.8337152774        22.199880192038
  H        37.2283283498       17.3955259459        17.232290359838
  H        20.3610994103       17.9647806836        20.657937802138
  H        35.2125765402       15.4442271715       12.0659129600
  H        37.3470236712       15.3943460039       13.3613980723
  H        38.7337383567       18.8385818883       11.1898054418
  H        36.5945091814       18.8690677278        9.8908787769
  H        37.2478603341       17.3955996895       14.7900379210
  H        35.1532881561       26.6908025879       11.4073128770
  H        28.5035623037       21.0800106222        23.966174112038
  H        25.7578791134       19.6304523660       12.1655304033
  H        23.5733611037       19.6842726731       13.3795130347
  H        22.2991081720       16.1866877693       11.2256476190
  H        24.4840642642       16.1543715200       10.0076636224
  H        23.7038180459       17.6465298618       14.7946407970
  H        29.0144066466       21.7170068576        9.7551306181
  H        29.1622111901       21.7404427401        22.619371230138
  H        32.0783793636       18.5425278790       11.0013881930
  H        27.4007444589       19.0708198537        8.0903266067
  H        14.8483459822       19.6459864569       12.1432312096
  H        17.0108983743       19.6918981083       13.3860281070
  H        18.3058235207       16.1913426811       11.2489760358
  H        16.1390654135       16.1607585612       10.0061173975
  H        16.9228228697       17.6936684958       14.8472143188
  H        46.0972928172       15.4536098063       12.0782165050
  H        43.9750138155       15.4083628832       13.3923455442
  H        42.5650420314       18.8375184995       11.2110211690
  H        44.6873812293       18.8573048483        9.8868198866
  H        44.0321894539       17.3541498860       14.8464010959
  H        20.2919511490       17.9279175349       11.4204639085
  H        46.0381493011       15.3893399656        20.024078340238
  H        43.9054549675       15.3338340631        18.729928569038
  H        42.5190869552       18.7918310544        20.879370735238
  H        44.6585821956       18.8341504744        22.173471549738
  H        44.0123601351       17.3281594932        17.286153637538
  H        46.1996342128       26.6827930461        20.613183953138
  H        52.7412536582       21.0626390372        8.1947117747
  H        14.8832745209       19.6722437904        19.884752362138
  H        17.0841192864       19.7419477677        18.705547295038
  H        18.3346901708       16.2241306707        20.840032203838
  H        16.1360332694       16.1783066057        22.028965721038
  H        16.9442049612       17.7056759083        17.284363879038
  H        52.3225908455       21.6732717750        22.283953188338
  H        52.0132057302       21.7020294948        9.4956135183
  H        49.0677820720       18.6076855590        21.193800016138
  H        13.2478437625       19.0160129885        23.966977668538
  H        29.9593334690       12.4436164541       12.2207958537
  H        28.8912414431       10.5135167810       13.3959077158
  H        25.2486339601       11.2090112677       11.2185641994
  H        26.3339969590       13.1296948851       10.0402423905
  H        27.1775245437       11.6687377662       14.7918005994
  H        30.9872351917       22.7858836853       12.0085865171
  H        31.9897772199       24.6685148710       13.3039465453
  H        35.6910663069       24.1449491391       11.1762048443
  H        34.6665950443       22.2714056156        9.8727995328
  H        33.6455103389       23.5937222683       14.7568355715
  H        25.7081183959        8.5945206704       11.4056057688
  H        30.8824295465       22.7069690295        19.935911408638
  H        31.8950596786       24.5766985846        18.634033341238
  H        35.5505611595       24.1323378855        20.857125064038
  H        34.5224024547       22.2625558021        22.156878451738
  H        33.5977181670       23.5797776263        17.197087317838
  H        40.5909405228       17.0882880634        20.651796371538
  H        32.5065652825       14.1451775966        8.2580139191
  H        29.9003912112       12.5332370927        19.903089761438
  H        28.8724190265       10.6303485507        18.652406525238
  H        25.2150719825       11.1751333559        20.849160565438
  H        26.2656113375       13.0619689540        22.108955338038
  H        27.1734445867       11.6841898880        17.231461812638
  H        33.3103528085       14.2255809947        22.458457545238
  H        33.4096077639       14.4140005236        9.5964338826
  H        32.1115924175       18.4964730898        21.212511747338
  H        30.2206431673       14.1881794621        8.0850001983
  H        16.1182952308        2.9634579421       12.1296181598
  H        14.9532639621        4.8206301322       13.3223539333
  H        17.3668080098        7.6859965661       11.2103708639
  H        18.5154217045        5.8184364341       10.0106118543
  H        16.7538650747        5.7397216919       14.7715502503
  H        44.8275928200       32.1403228509       11.9774422669
  H        45.9369221227       30.3415044520       13.3068599347
  H        43.6831938422       27.3781141628       11.1518404778
  H        42.6004534589       29.1899694484        9.8091811169
  H        44.2303360857       29.4367370493       14.7689829026
  H        14.8516546018        8.5465235125       11.3633387634
  H        44.8995662272       32.2341717129        19.921292468738
  H        46.0244847203       30.4131812069        18.641794033238
  H        43.7643914047       27.4841143861        20.835895024638
  H        42.6465252488       29.3177960123        22.114961180738
  H        44.2685363851       29.4705342222        17.208034821938
  H        35.0092096702       26.6268001392        20.637935689238
  H        36.6052612941       35.1341050540        8.1805793950
  H        16.1436064921        3.0130229176        19.893934140638
  H        14.9741104886        4.8564544938        18.678214932638
  H        17.3964620613        7.7472473587        20.744804619838
  H        18.5434678980        5.8933448813        21.972380662538
  H        16.7649141510        5.7556192182        17.209080358738
  H        36.2788805337       34.4822713017        22.262925964038
  H        36.3811815300       34.2089603986        9.4993650911
  H        40.5795268726       33.2021365469        21.143662845838
  H        17.4710426111        1.9474436864        23.963836401938
  H        29.1643744131       19.3377480532       12.5780880821
  H        29.5916984304       19.5541483190        19.617672637738
  H        31.7887576024       15.7859528984        19.584573883238
  H        31.5209777569       15.6967256075       12.6113293917
  H        28.2673876090       17.7355905990       14.6601029098
  H        29.7073490816       15.3465478763       14.4887102102
  H        31.3564967369       19.7365918430        17.622546875138
  H        32.7134943206       17.4284356030        17.466813959438
  H        28.9447505980       16.6571317515        17.086180695438
  H        18.8528199628        0.8688012804       12.3351095393
  H        40.5281835593       35.2288153280        19.941809288738
  H        42.3243156372       34.4190400049        19.580103183738
  H        22.0873779877        0.6918956027       12.3516997417
  H        11.5969203604       18.7129174447       12.3825261202
  H        52.2650462238       18.4313273434        19.667004601338
  H        49.2553478166       16.4770062363        19.574257719038
  H        10.1505834744       15.7982085829       12.2926574358
  H        50.8502589312       17.6924074312        19.944024042038
  H        10.0463240591       17.3945007325       12.0519140125
  H        20.2139841412        0.0020037172       12.0420669607
  H        39.1838589767       36.1244431202        19.676256902538
 Ni        30.9068022573       17.7969518960        18.985297246238
 Ni        31.0761158350       16.4198627389        16.155318878638
 Ni        29.8859272179       18.6730468950        16.072880681438