     569
 i =      163, E =     -4729.5144588745
  C        11.8586364096       14.0534654745        21.731370428638
  C        12.4560983458       12.8905164916        21.013124956238
  C        11.7044578346       12.1716640776        20.071347759038
  C        12.2808382184       11.1094582468        19.379004523638
  C        13.6213773666       10.7395492790        19.606828765338
  C        14.3544732066       11.4430224035        20.580433897438
  C        13.7815822372       12.5079885644        21.271951180138
  C        14.2609412531        9.6489051185        18.833420952038
  C        14.2562128132        9.6568050046        17.411718224138
  C        13.7429881623       10.7588878007        16.657792979938
  C        49.1267932222       21.2331653207        21.869532999138
  C        48.5500825794       22.4011200920        21.142479588438
  C        49.3000670882       23.0683013430        20.161342858738
  C        48.7331692285       24.1074604583        19.428144240738
  C        47.4027101105       24.5093179095        19.656902646838
  C        46.6718412850       23.8606171395        20.670600452238
  C        47.2342439803       22.8156887322        21.399954318938
  C        46.7724706607       25.5870100570        18.859610789338
  C        46.7614358164       25.5573767393        17.437842407038
  C        47.2613391087       24.4422815540        16.694327841638
  C        14.8602509698        8.5705193968        16.698451736138
  C        14.8918071967        8.5969967935        19.510067914238
  C        49.1131513473       21.2034178119       10.1453457385
  C        48.5277933062       22.3647872577       10.8724579641
  C        49.2670104307       23.0254734976       11.8654139072
  C        48.6906964264       24.0600338203       12.5968766897
  C        47.3602984960       24.4568721806       12.3586282792
  C        46.6399205505       23.8120183421       11.3350372034
  C        47.2134452354       22.7760978910       10.6032479168
  C        46.7218541479       25.5318369561       13.1496768840
  C        46.7336034783       25.5281852803       14.5713861042
  C        47.2490438027       24.4289773697       15.3277729953
  C        40.6157346025       17.0693077020       15.3138202155
  C        40.6288167291       17.0928652399       12.5039582999
  C        11.8829582930       14.0864627432       10.2855028497
  C        12.4722416022       12.9106441542       10.9896463031
  C        11.7148010572       12.1775207581       11.9158978330
  C        12.2814130780       11.0950739152       12.5843029239
  C        13.6202028556       10.7212458137       12.3523759875
  C        14.3580613662       11.4366833720       11.3913727732
  C        13.7926119294       12.5178345730       10.7186765713
  C        14.2538591290        9.6245433245       13.1228173153
  C        14.2524722762        9.6444854426       14.5446620195
  C        13.7424840966       10.7533747693       15.2917472059
  C        22.5172519626        3.2471914524        21.744592493738
  C        23.2418355859        4.3527381991        21.052143582038
  C        24.2425783594        4.0716782687        20.109664046338
  C        24.8790193339        5.1099521204        19.433376245838
  C        24.5323891767        6.4539457843        19.678136294038
  C        23.5606582190        6.7264148604        20.658598117338
  C        22.9193064899        5.6897963572        21.333325398138
  C        25.1422973659        7.5592422882        18.900287182438
  C        25.0988563852        7.5544873768        17.478572506138
  C        24.3856638727        6.5582680066        16.738509371238
  C        38.2980674009       31.9281936389        21.841990809438
  C        37.5560651325       30.8398064639        21.140800072838
  C        36.5900191960       31.1476656590        20.170330627338
  C        35.9588684110       30.1304353974        19.459537768638
  C        36.2784126897       28.7789229228        19.695811866638
  C        37.2138927428       28.4784388660        20.703962756638
  C        37.8489720277       29.4947167347        21.414291993838
  C        35.6670430592       27.6914882972        18.896763761038
  C        35.7072409941       27.7060655712        17.475063902938
  C        36.4213358584       28.7061421117        16.742330163938
  C        25.7163631328        8.6237436125        16.752543775438
  C        25.7541935064        8.6305572011        19.564803122238
  C        38.3306200599       31.9607077793       10.1606010212
  C        37.6143191816       30.8876541512       10.9108093413
  C        36.6806571050       31.1975436950       11.9118855311
  C        36.0707122458       30.1809830195       12.6451292267
  C        36.3791988983       28.8272800233       12.4020763134
  C        37.2941107598       28.5272291843       11.3739088925
  C        37.9057667517       29.5403704203       10.6416443133
  C        35.7631499662       27.7293591150       13.1841062442
  C        35.7557776955       27.7258988043       14.6068255807
  C        36.4428825988       28.7168440948       15.3759390604
  C        46.1355998621       26.6208189243       15.2815381708
  C        46.0878801162       26.5801990900       12.4736368728
  C        22.4592578126        3.2567713525       10.2610356568
  C        23.1480335362        4.3654526614       10.9900126255
  C        24.1421888325        4.0795961493       11.9395547071
  C        24.7663013878        5.1095209420       12.6397614347
  C        24.4176225564        6.4563145376       12.4132800760
  C        23.4454184579        6.7351027450       11.4335675064
  C        22.8162347858        5.7054830396       10.7342952534
  C        25.0502330067        7.5556721017       13.1853594983
  C        25.0512152818        7.5524345961       14.6086732904
  C        24.3615331001        6.5581389507       15.3719583052
  C        26.6108144806       17.8516374717        21.774554553438
  C        25.3058953252       17.9026242222        21.053600404938
  C        25.0482127434       18.8994766291        20.098597309238
  C        23.8367687747       18.9185289384        19.410783271838
  C        22.8463000832       17.9457649070        19.656137149738
  C        23.0998259787       16.9727729924        20.641774093238
  C        24.3134318910       16.9467552606        21.326718942838
  C        21.5747638445       17.9321316548        18.889585706138
  C        21.5771212590       17.9143303298        17.466883891438
  C        22.7835392850       17.7908005210        16.707669469238
  C        34.4309434902       17.2221413307        21.912147514538
  C        35.7219443386       17.1545319318        21.168818241838
  C        35.9284401164       16.1666697630        20.192505986238
  C        37.1082388530       16.1426603836        19.453488208538
  C        38.1157076689       17.1028124417        19.671690220738
  C        37.9129340681       18.0694291014        20.675666696338
  C        36.7303218350       18.1002373571        21.411185265938
  C        39.3696418079       17.1003030809        18.882556991138
  C        39.3623730684       17.0971714384        17.460337285238
  C        38.1536643579       17.2073324400        16.703704024438
  C        20.3310270032       17.9348911953        16.757166475338
  C        20.3493564622       17.9336193793        19.570698459038
  C        34.4362282846       17.2405124831       10.1907129030
  C        35.7369697862       17.1359019754       10.9127101840
  C        35.9358940731       16.1587157506       11.8996046638
  C        37.1275186204       16.1212301770       12.6197996377
  C        38.1481151851       17.0614129928       12.3763198882
  C        37.9542705602       18.0120537318       11.3560884648
  C        36.7632331971       18.0533337198       10.6373433263
  C        39.3975150813       17.0742077215       13.1702691591
  C        39.3768602286       17.0863340128       14.5922608645
  C        38.1605576586       17.2014562400       15.3369870051
  C        35.1146074437       26.6498429780       15.3069741752
  C        35.1793782907       26.6568915839       12.4970787156
  C        26.5726840239       17.8268654268       10.3239253170
  C        25.2595063636       17.8706219878       11.0325364481
  C        24.9928579281       18.8808748544       11.9693881589
  C        23.7760620428       18.9063284765       12.6453145048
  C        22.7954152902       17.9229320377       12.4054973889
  C        23.0564812803       16.9373837822       11.4365232590
  C        24.2748362086       16.9085703747       10.7605867154
  C        21.5308300236       17.9071838320       13.1771797763
  C        21.5539870157       17.9003209832       14.5986442024
  C        22.7718602669       17.7842893497       15.3413611955
  C        14.0472042003       17.8293404955       10.2885857519
  C        15.3523519797       17.8876582514       11.0130958206
  C        15.6095507367       18.8922745093       11.9591346686
  C        16.8188873574       18.9143186400       12.6515416515
  C        17.8056643861       17.9345193972       12.4203877625
  C        17.5533170577       16.9542483344       11.4419679665
  C        16.3434686426       16.9277248901       10.7510270742
  C        19.0745904561       17.9178624658       13.1901572898
  C        19.0724837257       17.9167067787       14.6127761144
  C        17.8647693064       17.8198802808       15.3731170204
  C        46.8017988623       17.2165965728       10.1581679308
  C        45.5086983146       17.1462059640       10.9007772498
  C        45.3049643938       16.1619312434       11.8807298520
  C        44.1212786305       16.1318378172       12.6138733797
  C        43.1090376819       17.0858624162       12.3906040884
  C        43.3098638969       18.0496995256       11.3835967719
  C        44.4945238321       18.0836203829       10.6510654588
  C        41.8546696986       17.0859776990       13.1802192860
  C        41.8616638890       17.0860680353       14.6027977977
  C        43.0710380054       17.1863091650       15.3601473415
  C        20.3187054808       17.9269080816       15.3223231559
  C        20.2995424571       17.8958383443       12.5091486778
  C        46.7838136975       17.2316022916        21.877005899838
  C        45.4807555532       17.1247153190        21.159108425438
  C        45.2617985654       16.1219374625        20.202092435438
  C        44.0735381370       16.0907604214        19.475863941238
  C        43.0731430371       17.0594232203        19.688454868538
  C        43.2832681319       18.0333384163        20.682815344538
  C        44.4725499243       18.0705433252        21.404578582538
  C        41.8247954373       17.0743134387        18.892881329138
  C        41.8465061259       17.0778783362        17.471211666738
  C        43.0640953926       17.1790689870        16.726977399538
  C        46.1534045205       26.6372550567        16.716096505038
  C        46.1625579929       26.6561612743        19.525742574038
  C        14.0449643305       17.8312812455        21.698243427038
  C        15.3653504985       17.9048307771        21.006737734038
  C        15.6395868282       18.9221154834        20.080485519338
  C        16.8684357546       18.9594622195        19.425460780138
  C        17.8502467476       17.9784497846        19.670753473338
  C        17.5825954640       16.9895551997        20.634774877138
  C        16.3559248836       16.9519108066        21.293580989038
  C        19.1177911186       17.9543738680        18.902492115838
  C        19.0952344600       17.9341790621        17.480936372038
  C        17.8759085721       17.8275725222        16.739138604638
  C        28.8045365450       14.0900311200       10.3971426244
  C        28.1918917288       12.9157305730       11.0796400531
  C        28.9077928184       12.1863599206       12.0404745442
  C        28.3075597858       11.1110227884       12.6897980542
  C        26.9762716290       10.7435725035       12.4067131205
  C        26.2829510113       11.4533806392       11.4096053870
  C        26.8816008678       12.5273261261       10.7559784841
  C        26.3050950608        9.6679831641       13.1719598108
  C        26.2983802292        9.6979178657       14.5934317302
  C        26.8032306285       10.8132502181       15.3345735167
  C        32.1790131560       21.2409541180       10.1479753394
  C        32.7751908112       22.4036832940       10.8695303651
  C        32.0202667435       23.0939815894       11.8307541686
  C        32.5888739724       24.1343111668       12.5592690466
  C        33.9288563023       24.5137153845       12.3486939033
  C        34.6670026052       23.8421602948       11.3556899408
  C        34.1006233415       22.7962504948       10.6287355474
  C        34.5535651766       25.5903128922       13.1523006128
  C        34.5278771827       25.5662938332       14.5743010143
  C        34.0068178114       24.4550593179       15.3096076354
  C        25.6952425585        8.6199330242       15.3176534380
  C        25.6645660756        8.6157177304       12.5042339669
  C        32.0759604736       21.2005159005        21.865727858438
  C        32.6393755013       22.3704253133        21.131246418138
  C        31.9073079986       23.0103918443        20.118817833338
  C        32.4786220200       24.0512468930        19.388573672638
  C        33.7957347496       24.4807248195        19.648174689038
  C        34.5070097371       23.8550357061        20.690871233538
  C        33.9413218718       22.8119446501        21.418176624438
  C        34.4380159464       25.5634250954        18.865566413838
  C        34.4678265314       25.5524863183        17.442869208938
  C        33.9772645544       24.4488382729        16.676098615538
  C        40.6078873759       17.0699695684        16.749105163238
  C        40.5946494716       17.1049647233        19.559887550238
  C        28.7680694679       14.0984364327        21.801276391938
  C        28.1769504278       12.9472353534        21.055520797138
  C        28.9101207758       12.2587667621        20.076461695738
  C        28.3327676316       11.1946887991        19.384631745738
  C        27.0077891279       10.7892966822        19.646847570638
  C        26.2934873331       11.4660446587        20.653735258538
  C        26.8668920583       12.5303466645        21.345152826938
  C        26.3614524459        9.6938198197        18.881630440438
  C        26.3306558505        9.7097519260        17.459729852838
  C        26.8175672005       10.8196783652        16.700302299838
  C        18.1356283095        3.1809794010       10.3170892637
  C        17.4064540360        4.2782701986       11.0158118712
  C        16.3903396933        3.9999638321       11.9429117823
  C        15.7426387337        5.0399650500       12.6064121067
  C        16.0949672043        6.3836443177       12.3671298562
  C        17.0848399511        6.6531309727       11.4038653470
  C        17.7339189505        5.6157644927       10.7388136430
  C        15.4705144821        7.4913245189       13.1301507816
  C        15.4856406530        7.4905888041       14.5518696252
  C        16.1871678300        6.4969592606       15.3050465447
  C        42.9458088610       31.8595984043       10.0728538706
  C        43.6461873644       30.7718831815       10.8168285858
  C        44.5916972635       31.0932201468       11.8029095135
  C        45.1974286515       30.0876857535       12.5505851193
  C        44.8710473303       28.7346141397       12.3357249328
  C        43.9452601611       28.4202534813       11.3224784528
  C        43.3364352894       29.4253864447       10.5744213326
  C        45.4886577703       27.6553154107       13.1389173099
  C        45.4928715363       27.6809404843       14.5606190021
  C        44.8058478051       28.6890160967       15.3072616954
  C        14.8565409287        8.5630139908       15.2642225537
  C        14.8752293749        8.5630747405       12.4515421921
  C        42.9464381680       31.9617312139        21.798779695538
  C        43.6917651382       30.8855582516        21.085349180138
  C        44.6564196701       31.1914697590        20.113113599138
  C        45.2779824038       30.1718895627        19.395391894438
  C        44.9541977601       28.8215685097        19.632980589938
  C        44.0206644473       28.5238979086        20.643711927338
  C        43.3923699022       29.5406566487        21.355888221238
  C        45.5632214342       27.7241510346        18.847708435738
  C        45.5334706724       27.7174297299        17.426403271538
  C        44.8271656661       28.7076706201        16.673447121838
  C        35.0868465407       26.6413086575        16.742380234438
  C        35.0498177184       26.6202770327        19.552627050938
  C        18.1487643754        3.2469964757        21.696418584038
  C        17.4301481571        4.3438521559        20.987173617038
  C        16.4147087778        4.0525831577        20.063847554538
  C        15.7663931792        5.0832006268        19.388440350438
  C        16.1212604638        6.4284191215        19.610938577038
  C        17.1129164390        6.7118053698        20.567902607538
  C        17.7606196939        5.6829049021        21.247680536738
  C        15.4906869395        7.5240931369        18.838481949738
  C        15.4965385841        7.5074533975        17.417341512438
  C        16.1933323781        6.5057624887        16.670654739038
  H        10.6723513978       12.4658191478        19.894240959938
  H        11.6945658045       10.5510185895        18.652420106938
  H        15.3914689125       11.1683516284        20.762260775238
  H        14.3510325060       13.0710973038        22.007482942638
  H        13.3759040901       11.6309922461        17.191082598938
  H        50.3227151168       22.7481443616        19.976476276738
  H        49.3196408651       24.6226203148        18.670483895438
  H        45.6424444432       24.1616041603        20.853951695638
  H        46.6632760765       22.2906289655        22.162207399738
  H        47.6298865046       23.5758937675        17.235987957338
  H        14.8722263958        8.5882573036        20.598375831638
  H        50.2870465781       22.7026108422       12.0603503557
  H        49.2691006055       24.5754699307       13.3603843345
  H        45.6105451970       24.1093268154       11.1459229922
  H        46.6526006984       22.2539859348        9.8316667340
  H        47.6078204659       23.5518510589       14.7968862135
  H        40.6334954105       17.0607782098       11.4160701612
  H        48.6870657113       14.0949988582        23.789779075138
  H        10.6813485149       12.4665983192       12.0933957732
  H        11.6896533501       10.5247137343       13.2970539793
  H        15.3934604956       11.1587431029       11.2053295661
  H        14.3649338507       13.0871039987        9.9900570202
  H        13.3756310147       11.6219856806       14.7531260404
  H        47.9301435388       14.2182154136        9.7109220067
  H        47.7799225043       14.3735253520        22.485085197738
  H        49.0828321743       18.5519889086       10.8671160188
  H        10.4159577070       14.1343926967        7.9988005361
  H        24.4993919839        3.0325389323        19.916041866938
  H        25.6532585764        4.8890186958        18.701751246338
  H        23.2839362273        7.7600499085        20.855866975438
  H        22.1470246466        5.8938096567        22.071084860938
  H        23.8275351600        5.8027360540        17.283682653038
  H        36.3587050696       32.1920272127        19.974559252738
  H        35.2107549882       30.3742177582        18.708364457538
  H        37.4688675492       27.4380165681        20.894812570538
  H        38.5967266311       29.2690636549        22.170995845438
  H        36.9832976609       29.4554146470        17.292175733038
  H        25.8015217576        8.6117582815        20.652208684238
  H        36.4519686059       32.2418905982       12.1121782719
  H        35.3400094217       30.4288976803       13.4118764442
  H        37.5467172318       27.4870081014       11.1791460101
  H        38.6325312011       29.3117530768        9.8658664893
  H        37.0223289305       29.4738996590       14.8552748204
  H        46.1092945688       26.5876238265       11.3856010635
  H        44.6683624424       35.1162508097        23.803677517238
  H        24.4177934767        3.0413224389       12.1099954030
  H        25.5418449221        4.8794327806       13.3671821737
  H        23.1635542396        7.7697635067       11.2490156689
  H        22.0505096124        5.9194878394        9.9921990792
  H        23.7840187682        5.8031897198       14.8462427661
  H        44.9542058056       34.3909260888        9.6955271299
  H        44.9016745043       34.2068276529        22.480371228138
  H        40.6664176983       33.2095110897       10.8533058040
  H        23.1506715834        1.9582578779        8.0062939387
  H        25.8066047463       19.6558331066        19.909501310738
  H        23.6425121411       19.6967447331        18.675854121438
  H        22.3468686671       16.2127260903        20.840148006938
  H        24.5201701514       16.1806213692        22.070381144838
  H        23.7249011364       17.6684953643        17.235850223538
  H        35.1504735615       15.4261113980        20.021440755938
  H        37.2648400386       15.3700876232        18.703806338438
  H        38.6823842537       18.8188316150        20.849565074938
  H        36.5587607312       18.8615165192        22.168792740738
  H        37.2137387856       17.3293344623        17.234452811538
  H        20.3548054262       17.9708630618        20.658663650338
  H        35.1389154627       15.4474799479       12.1041794425
  H        37.2782495580       15.3594624739       13.3815433942
  H        38.7343800560       18.7452164010       11.1618953340
  H        36.5946402722       18.8060590506        9.8710295096
  H        37.2256783182       17.3186292232       14.7965597232
  H        35.1650875559       26.6796254730       11.4090314032
  H        28.5071685283       21.0724941575        23.866302084838
  H        25.7501397716       19.6420458717       12.1445646654
  H        23.5687269673       19.6937807987       13.3667461982
  H        22.3077771977       16.1710224010       11.2465037291
  H        24.4923884460       16.1354113437       10.0275865564
  H        23.7038629360       17.6567676829       14.7987683833
  H        29.0081596987       21.7237594663        9.7374720976
  H        29.1801601521       21.7198432894        22.544036816438
  H        32.0370751631       18.5770434193       11.0084749569
  H        27.4003269815       19.0556157951        8.0615039393
  H        14.8511480129       19.6515111236       12.1367248518
  H        17.0141058347       19.6997817968       13.3785126102
  H        18.3043493833       16.1896094610       11.2541920403
  H        16.1375339180       16.1574137075       10.0116240166
  H        16.9224478457       17.7058722006       14.8451868211
  H        46.0917214459       15.4333227155       12.0616780327
  H        43.9664576881       15.3603383158       13.3650015861
  H        42.5376708399       18.7952239483       11.2052401709
  H        44.6634809064       18.8427456790        9.8907944798
  H        44.0118219028       17.3012186703       14.8293821813
  H        20.2946647062       17.9234570380       11.4209430575
  H        46.0384460127       15.3804535447        20.028937916538
  H        43.9076626205       15.3114417093        18.735198732238
  H        42.5172401267       18.7867949935        20.854032512738
  H        44.6541874888       18.8412301889        22.149707491938
  H        43.9996212131       17.2873284198        17.268129891338
  H        46.1994618880       26.6827553206        20.613185521138
  H        52.7411521296       21.0626625326        8.1946848652
  H        14.8800054720       19.6773419085        19.890901429238
  H        17.0806265311       19.7515016627        18.710503647238
  H        18.3320049001       16.2255849436        20.831344706938
  H        16.1338050212       16.1758956953        22.022037882038
  H        16.9418995030       17.7195472779        17.282292977038
  H        52.3225346211       21.6732763663        22.284049659438
  H        52.0134283976       21.7022220758        9.4957285396
  H        49.0673410192       18.6076277172        21.193925554838
  H        13.2473701262       19.0163841630        23.967009995638
  H        29.9298347551       12.4796305453       12.2689252727
  H        28.8647253157       10.5451501503       13.4331730749
  H        25.2543851168       11.1801954132       11.1830784583
  H        26.3428574381       13.0969716565       10.0028365308
  H        27.1558646353       11.6853274816       14.7922249009
  H        30.9903359041       22.7909184573       12.0020981999
  H        31.9974856978       24.6675217051       13.3004054084
  H        35.7041733975       24.1246042937       11.1869349665
  H        34.6771708626       22.2535479002        9.8831254555
  H        33.6547461062       23.5855573902       14.7618818565
  H        25.6913185093        8.5927303302       11.4162102830
  H        30.8966365171       22.6689182372        19.905476397138
  H        31.9029605390       24.5467713906        18.609830280538
  H        35.5260603908       24.1738682822        20.899888404838
  H        34.4993810335       22.3081388276        22.203796420738
  H        33.6022265102       23.5739824509        17.199470265638
  H        40.5898930242       17.0793077333        20.647956149638
  H        32.5198206864       14.1304929574        8.3599175283
  H        29.9342254027       12.5658794415        19.874849993038
  H        28.9105033367       10.6598385478        18.633839584038
  H        25.2682809847       11.1688952438        20.864789183438
  H        26.3089853756       13.0658244853        22.109376908238
  H        27.1798393418       11.6970480670        17.228202040238
  H        33.2899192386       14.1489627664        22.424265552638
  H        33.4037660013       14.4373507783        9.6741400045
  H        32.1880294404       18.5531876640        21.145113945738
  H        30.2156515070       14.1825503632        8.1398929905
  H        16.1179484600        2.9634879854       12.1289839377
  H        14.9528735143        4.8206285324       13.3217392464
  H        17.3677126035        7.6859632634       11.2111684668
  H        18.5163740143        5.8183912204       10.0114054252
  H        16.7537808802        5.7396622820       14.7715406719
  H        44.8279692275       32.1403078838       11.9770898439
  H        45.9373114019       30.3414893131       13.3064980241
  H        43.6826447180       27.3781711165       11.1523197392
  H        42.5999213387       29.1900410008        9.8096582281
  H        44.2305616453       29.4368395022       14.7689620533
  H        14.8516186926        8.5463412212       11.3633176308
  H        44.9000070118       32.2341487261        19.921698129838
  H        46.0249476919       30.4131580727        18.642224392238
  H        43.7637100669       27.4841670193        20.835277723138
  H        42.6458527832       29.3178598390        22.114316635838
  H        44.2687599327       29.4706287061        17.208037657338
  H        35.0005844529       26.6338407972        20.639832293538
  H        36.6053314109       35.1340625235        8.1807809900
  H        16.1434616996        3.0130194665        19.894315225738
  H        14.9739035701        4.8563602240        18.678537304838
  H        17.3966858501        7.7472456777        20.744528481738
  H        18.5437897581        5.8933731004        21.972124276938
  H        16.7647795419        5.7555458362        17.209113895738
  H        36.2789042418       34.4822993065        22.263002209038
  H        36.3814829952       34.2088301278        9.4995054294
  H        40.5793103027       33.2021062694        21.143702333238
  H        17.4714544274        1.9472556690        23.963961015838
  H        29.3297302975       19.6081147568       12.6005967515
  H        28.6471941482       18.7023687173        19.767434650838
  H        30.6942784094       15.8170520693        19.518941753238
  H        31.1595691885       15.6453639376       12.5753836414
  H        27.7990879799       18.2301863283       14.1693527662
  H        29.0882674712       15.7504427487       14.6700204526
  H        32.3881537211       17.9580249540        16.896798408138
  H        18.8538508575        0.8691043999       12.3353115307
  H        40.5278727403       35.2289548107        19.941761347638
  H        42.3248136563       34.4195249485        19.580102982438
  H        22.0878110850        0.6923713794       12.3511830260
  H        11.5970467772       18.7127982617       12.3823650425
  H        52.2649192031       18.4312108128        19.667203878038
  H        49.2552631233       16.4765472979        19.574082844638
  H        10.1504852045       15.7981629306       12.2925400828
  H        50.8500583039       17.6925276759        19.943964327938
  H        10.0462075269       17.3945660020       12.0519329247
  H        20.2154217512        0.0024728265       12.0418971464
  H        39.1837682910       36.1245491879        19.676314867538
 Ni        30.3917270114       18.0437709565        18.244999022538
 Ni        30.9448325934       16.4996189920       15.823443510538
 Ni        29.1267693407       18.0375853789        16.318557768138
 Ni        29.8880199826       17.4083522295       13.2387110797
  O        10.6498163523       14.3651210996        21.475671542138