     570
 i =      122, E =     -4745.5860778811
  C        11.8586178191       14.0534937429        21.731390737238
  C        12.4560987985       12.8904903011        21.013183350638
  C        11.7046034672       12.1719487504        20.071066675638
  C        12.2809858915       11.1097590080        19.378696980038
  C        13.6213882906       10.7395579023        19.606835334538
  C        14.3542995851       11.4426791193        20.580836690238
  C        13.7814084480       12.5076327094        21.272372273738
  C        14.2609917907        9.6489653757        18.833409523438
  C        14.2564210246        9.6569727087        17.411705932838
  C        13.7433332293       10.7591186151        16.657774294438
  C        49.1266269331       21.2333040780        21.869535532338
  C        48.5498876410       22.4011237970        21.142441932238
  C        49.2999421523       23.0684497009        20.161441331638
  C        48.7330168108       24.1075596207        19.428222471938
  C        47.4024549632       24.5092203789        19.656782940938
  C        46.6714724493       23.8603232771        20.670273719738
  C        47.2339099927       22.8154416068        21.399664994038
  C        46.7722910773       25.5869392316        18.859480110138
  C        46.7615142217       25.5574167872        17.437713217538
  C        47.2614849246       24.4423522924        16.694201288438
  C        14.8604261614        8.5706728352        16.698434640038
  C        14.8917000368        8.5969515892        19.510045066138
  C        49.1131607731       21.2034992213       10.1453583290
  C        48.5278824926       22.3648578978       10.8723917873
  C        49.2671219933       23.0256040065       11.8653039807
  C        48.6907899344       24.0601580629       12.5967345576
  C        47.3603631714       24.4569460184       12.3585084696
  C        46.6399543447       23.8120193218       11.3349853645
  C        47.2134962688       22.7761059982       10.6032135943
  C        46.7219289030       25.5318926495       13.1495613805
  C        46.7338126870       25.5282907997       14.5712643111
  C        47.2492538602       24.4290823154       15.3276488520
  C        40.6201158203       17.0808602175       15.3095897184
  C        40.6289234390       17.0986115991       12.4998161862
  C        11.8828891140       14.0864744564       10.2854622272
  C        12.4721428092       12.9105686143       10.9895565602
  C        11.7148344018       12.1777843951       11.9161731016
  C        12.2814096723       11.0953363865       12.5846096486
  C        13.6200334383       10.7211499894       12.3523297649
  C        14.3577039029       11.4361822475       11.3908777541
  C        13.7922970687       12.5173454403       10.7181701528
  C        14.2537227480        9.6244995695       13.1227959183
  C        14.2525883957        9.6446027049       14.5446400119
  C        13.7427848265       10.7535788348       15.2917270096
  C        22.5116508145        3.2441124300        21.743222975338
  C        23.2262032570        4.3496842061        21.044124817838
  C        24.2212050340        4.0700328369        20.095817214138
  C        24.8477645537        5.1100447210        19.414074216338
  C        24.4949589106        6.4516128905        19.660911420438
  C        23.5283761998        6.7227702038        20.646356300238
  C        22.8970569192        5.6845922203        21.326302816238
  C        25.0987141393        7.5590988294        18.885333991038
  C        25.0645276860        7.5552792884        17.464009381438
  C        24.3604473846        6.5568873703        16.718511116238
  C        38.2978508022       31.9274596713        21.841277010838
  C        37.5567048012       30.8384197869        21.140066285238
  C        36.5925952789       31.1442590269        20.166848830838
  C        35.9632005198       30.1257414303        19.456037855438
  C        36.2820489224       28.7742274213        19.694387118138
  C        37.2150137295       28.4759649901        20.705769546338
  C        37.8484243984       29.4933855054        21.416075242438
  C        35.6743475937       27.6849570942        18.894397739338
  C        35.7164982454       27.6996249181        17.472517449838
  C        36.4279706967       28.7017970259        16.740078799738
  C        25.6834723783        8.6273566798        16.744045939538
  C        25.7002215009        8.6314329511        19.555973779638
  C        38.3301746960       31.9607967304       10.1599308770
  C        37.6132801684       30.8881109669       10.9085401273
  C        36.6838182105       31.1976849581       11.9136197782
  C        36.0746274246       30.1806216251       12.6465401055
  C        36.3796883495       28.8269359561       12.3990394873
  C        37.2893587993       28.5274639037       11.3659771659
  C        37.9004724530       29.5409535596       10.6341623947
  C        35.7665145563       27.7279411175       13.1810599714
  C        35.7631841418       27.7222148987       14.6037615478
  C        36.4490346855       28.7135689707       15.3735720802
  C        46.1357915955       26.6209103353       15.2814095508
  C        46.0877965066       26.5801546858       12.4735149058
  C        22.4597605620        3.2562136819       10.2581529980
  C        23.1508100307        4.3664112832       10.9821497287
  C        24.1504789221        4.0830389408       11.9263007478
  C        24.7749010508        5.1150346247       12.6228917600
  C        24.4201086521        6.4602881597       12.3977801088
  C        23.4435693617        6.7368608726       11.4221588515
  C        22.8143161210        5.7051273520       10.7263323156
  C        25.0476382170        7.5603525317       13.1721870155
  C        25.0387450380        7.5554309306       14.5951127432
  C        24.3463039157        6.5579806161       15.3518442391
  C        26.6144861860       17.8585391135        21.773223186738
  C        25.3089718448       17.9064071144        21.049493277238
  C        25.0420265665       18.9112790792        20.105898030738
  C        23.8297255553       18.9285107131        19.418879523338
  C        22.8466723859       17.9463401896        19.655849369838
  C        23.1089574116       16.9647051693        20.630194723738
  C        24.3239605170       16.9403887336        21.313081162738
  C        21.5740220105       17.9315424173        18.890620911238
  C        21.5762011175       17.9118376486        17.468272419738
  C        22.7830856829       17.7892093961        16.709917477538
  C        34.4400155793       17.1925969604        21.908764533438
  C        35.7329417961       17.1425130357        21.165651224138
  C        35.9465131314       16.1603948902        20.185611482838
  C        37.1259460618       16.1467955664        19.446828600838
  C        38.1260091725       17.1132780452        19.668842702838
  C        37.9166259232       18.0757367714        20.674747820738
  C        36.7334544000       18.0953556049        21.410192878438
  C        39.3787492002       17.1180330741        18.878967411038
  C        39.3698151475       17.1156826318        17.456991979938
  C        38.1598671223       17.2276929062        16.702274999038
  C        20.3305868254       17.9301198971        16.758020179238
  C        20.3488344178       17.9332888980        19.571713271738
  C        34.4384608021       17.2377546457       10.1889092644
  C        35.7382801967       17.1373060328       10.9130030943
  C        35.9448522732       16.1529915295       11.8910556801
  C        37.1357114911       16.1195654462       12.6126270616
  C        38.1488399096       17.0695473330       12.3766101767
  C        37.9481945538       18.0271828483       11.3647774923
  C        36.7570094452       18.0654291107       10.6462085810
  C        39.3992419372       17.0828979937       13.1685204411
  C        39.3802823272       17.0980683634       14.5900448483
  C        38.1649126825       17.2177750706       15.3355701422
  C        35.1276166112       26.6426912696       15.3033843568
  C        35.1819883717       26.6562181808       12.4936213351
  C        26.5760528109       17.8271219925       10.3261492514
  C        25.2625089484       17.8705525294       11.0358784664
  C        24.9977813323       18.8759526557       11.9783534197
  C        23.7798320362       18.9010843040       12.6524725403
  C        22.7967516284       17.9214055128       12.4071256044
  C        23.0564016927       16.9404543340       11.4329445153
  C        24.2751374625       16.9127462332       10.7576573417
  C        21.5318648284       17.9040450891       13.1783994610
  C        21.5543984849       17.8957145035       14.5999260739
  C        22.7719390858       17.7810231409       15.3436530700
  C        14.0472241161       17.8289503147       10.2887699011
  C        15.3526018417       17.8862325689       11.0136995999
  C        15.6105427291       18.8901340017       11.9602611754
  C        16.8199896243       18.9110287301       12.6526851854
  C        17.8062209795       17.9308330045       12.4209213509
  C        17.5531418673       16.9512130069       11.4420818649
  C        16.3431361821       16.9258071947       10.7512449789
  C        19.0752809294       17.9132870340       13.1907818114
  C        19.0727959626       17.9104701182       14.6134116523
  C        17.8649574338       17.8126427539       15.3735470479
  C        46.8019703029       17.2159269534       10.1567718914
  C        45.5081610448       17.1448505656       10.8965963305
  C        45.3025787222       16.1594924041       11.8749218905
  C        44.1184338711       16.1306934227       12.6069999886
  C        43.1084989227       17.0870598278       12.3838651588
  C        43.3105598602       18.0510707559       11.3774658810
  C        44.4956525846       18.0837475160       10.6460162433
  C        41.8554455518       17.0903216912       13.1745249681
  C        41.8648933900       17.0932622796       14.5968296957
  C        43.0757586789       17.1926204402       15.3520113798
  C        20.3188355883       17.9211398384       15.3232054601
  C        20.3005095505       17.8929159997       12.5101571111
  C        46.7854094165       17.2325285627        21.876255930938
  C        45.4844666081       17.1289785661        21.155911288338
  C        45.2662484232       16.1286861214        20.196256844738
  C        44.0793911352       16.1012754772        19.467978842438
  C        43.0808188397       17.0715598761        19.681226953838
  C        43.2903568280       18.0431627927        20.677840501438
  C        44.4780144079       18.0764910045        21.401831345538
  C        41.8330907671       17.0895223970        18.886073419738
  C        41.8536857906       17.0915549712        17.464700492238
  C        43.0705673803       17.1886822750        16.718837327038
  C        46.1535438189       26.6373177570        16.715958297038
  C        46.1621953474       26.6559871731        19.525609572138
  C        14.0445980744       17.8310706876        21.698354319138
  C        15.3650729668       17.9041662329        21.006743108338
  C        15.6389324869       18.9203162119        20.079226841138
  C        16.8677587282       18.9571320838        19.424134304438
  C        17.8497802993       17.9768274527        19.671096007138
  C        17.5825565780       16.9890975738        20.636359521338
  C        16.3557894137       16.9518625192        21.294955413638
  C        19.1173345976       17.9521252237        18.903059461838
  C        19.0947872405       17.9294619438        17.481579817038
  C        17.8756917514       17.8210466170        16.739582983938
  C        28.8090532892       14.0927756660       10.3952202943
  C        28.1926686557       12.9221825322       11.0834967357
  C        28.9080639534       12.1862516928       12.0397578827
  C        28.3040864934       11.1135705810       12.6906767577
  C        26.9704596826       10.7527541345       12.4099218917
  C        26.2773651186       11.4689684684       11.4175635053
  C        26.8788838301       12.5418457847       10.7649710059
  C        26.2974890338        9.6746935157       13.1697947565
  C        26.2817292579        9.7031058947       14.5907728157
  C        26.7799478194       10.8183328255       15.3366007589
  C        32.1815924899       21.2383326859       10.1460342807
  C        32.7770775484       22.4031730494       10.8658566843
  C        32.0284614941       23.0844030429       11.8382686046
  C        32.5994113031       24.1233749454       12.5669935751
  C        33.9351940292       24.5109984806       12.3449350238
  C        34.6662364276       23.8490670091       11.3402422384
  C        34.0978407296       22.8041122027       10.6136080921
  C        34.5622391536       25.5860724370       13.1485388453
  C        34.5443920561       25.5573510292       14.5705370862
  C        34.0364035806       24.4394211486       15.3047000186
  C        25.6745165844        8.6239545446       15.3094943813
  C        25.6634173641        8.6224455351       12.4961015599
  C        32.0952419220       21.1667689685        21.826698330238
  C        32.6569233460       22.3371674500        21.093156586738
  C        31.9326220239       22.9750441481        20.074702092338
  C        32.5025334349       24.0254036772        19.358166557238
  C        33.8121030415       24.4649762471        19.636198881538
  C        34.5162584030       23.8415111181        20.684738714038
  C        33.9505841208       22.7904123943        21.399734018038
  C        34.4543541356       25.5515324589        18.860057218438
  C        34.4891744644       25.5390996127        17.437587110038
  C        34.0099695999       24.4298442401        16.671214972738
  C        40.6141890738       17.0851033955        16.744487568138
  C        40.6040973920       17.1216305588        19.554807253938
  C        28.7461032513       14.0686417042        21.808214099138
  C        28.1350826273       12.9224296995        21.071494406438
  C        28.8628772992       12.2377158439        20.086513317238
  C        28.2799972381       11.1821299950        19.389396213638
  C        26.9529706249       10.7853511608        19.651142481038
  C        26.2428379616       11.4578854645        20.663260559838
  C        26.8242020342       12.5136238718        21.362588429738
  C        26.3073894584        9.6970055714        18.878694353838
  C        26.2882092379        9.7144442589        17.456919898838
  C        26.7809413076       10.8252604429        16.702435745538
  C        18.1354223809        3.1807792286       10.3171491761
  C        17.4061171146        4.2781092538       11.0158395759
  C        16.3903358101        3.9997701935       11.9432690739
  C        15.7426004758        5.0397687433       12.6067615592
  C        16.0945947847        6.3834640617       12.3671350973
  C        17.0840570005        6.6529701860       11.4034591104
  C        17.7331516409        5.6156064962       10.7384253365
  C        15.4702619985        7.4912014894       13.1301497350
  C        15.4856459971        7.4906351020       14.5518640165
  C        16.1872253473        6.4970362001       15.3050358202
  C        42.9457549502       31.8594757210       10.0728044502
  C        43.6460962465       30.7717868713       10.8167813201
  C        44.5919609793       31.0931061204       11.8025300143
  C        45.1976799961       30.0875677221       12.5501917041
  C        44.8709250443       28.7345385286       12.3356341941
  C        43.9446898822       28.4201879406       11.3228080289
  C        43.3358616731       29.4253313407       10.5747636724
  C        45.4886372538       27.6552847140       13.1388081248
  C        45.4929930900       27.6809911604       14.5605016224
  C        44.8059419494       28.6890648701       15.3071184466
  C        14.8566602205        8.5631357456       15.2642061035
  C        14.8748752168        8.5628922642       12.4515402154
  C        42.9463666171       31.9615135582        21.798736986338
  C        43.6915043082       30.8853749358        21.085155615938
  C        44.6565630086       31.1912710787        20.113310327738
  C        45.2780847105       30.1716864310        19.395575854938
  C        44.9538492563       28.8214035033        19.632776343638
  C        44.0197626286       28.5237275965        20.642979757938
  C        43.3914972599       29.5404994560        21.355161147138
  C        45.5630140921       27.7240345704        18.847546114438
  C        45.5335004473       27.7174334062        17.426245121238
  C        44.8272266547       28.7077032041        16.673301762738
  C        35.1014959002       26.6323596765        16.738672221138
  C        35.0590037296       26.6114728262        19.548861557538
  C        18.1485894893        3.2468311814        21.696419029638
  C        17.4299834109        4.3437499843        20.987076546038
  C        16.4146564475        4.0525046521        20.063651241138
  C        15.7663510718        5.0831529442        19.388250770838
  C        16.1211393816        6.4283583192        19.610886387138
  C        17.1126729557        6.7117221228        20.567978089638
  C        17.7603357257        5.6827871333        21.247737744538
  C        15.4906483947        7.5240919342        18.838456799138
  C        15.4966443177        7.5075638130        17.417320102538
  C        16.1934349698        6.5058665651        16.670640728238
  H        10.6726045879       12.4663500360        19.893727227738
  H        11.6948082155       10.5515519316        18.651857226838
  H        15.3911541619       11.1676879007        20.762982810338
  H        14.3506847758       13.0704727467        22.008243502838
  H        13.3763005443       11.6312457973        17.191062904138
  H        50.3226551228       22.7484341917        19.976712068738
  H        49.3194947041       24.6228273643        18.670643931638
  H        45.6419501023       24.1610348603        20.853384442838
  H        46.6628051129       22.2902407672        22.161717750938
  H        47.6298834630       23.5758965145        17.235851699938
  H        14.8719121738        8.5880721761        20.598349171438
  H        50.2871572933       22.7027595009       12.0602518999
  H        49.2691504012       24.5756256049       13.3602502948
  H        45.6105295285       24.1092064336       11.1459415725
  H        46.6525752762       22.2539463359        9.8317221477
  H        47.6079360196       23.5519136301       14.7967722346
  H        40.6316795049       17.0653083894       11.4119587884
  H        48.6870416832       14.0949570429        23.789778777938
  H        10.6815102465       12.4671571177       12.0939478073
  H        11.6897443096       10.5252527294       13.2976596563
  H        15.3929339524       11.1578635924       11.2044668387
  H        14.3644378316       13.0863106818        9.9891713589
  H        13.3759488178       11.6221937655       14.7531016523
  H        47.9300755384       14.2184625543        9.7107567975
  H        47.7799280325       14.3735377843        22.485060219438
  H        49.0824878867       18.5519077922       10.8670232006
  H        10.4158337500       14.1343951586        7.9988070113
  H        24.4809429170        3.0314573160        19.903258888738
  H        25.6192811926        4.8932275172        18.678424648938
  H        23.2488918020        7.7557325443        20.843013878938
  H        22.1283143586        5.8842344721        22.068800912538
  H        23.8008949049        5.7992691449        17.259400335538
  H        36.3612787532       32.1881919395        19.968714946138
  H        35.2169076204       30.3686484499        18.702782059038
  H        37.4697017363       27.4359168373        20.899104639438
  H        38.5942596927       29.2683692399        22.174862984538
  H        36.9886439294       29.4519170429        17.290122066438
  H        25.7419285011        8.6103484270        20.643478479038
  H        36.4582459019       32.2420322934       12.1173574942
  H        35.3474804160       30.4279462808       13.4168192494
  H        37.5385870092       27.4871270692       11.1675822586
  H        38.6235577519       29.3127844715        9.8548532776
  H        37.0268939827       29.4722550239       14.8535524405
  H        46.1089630037       26.5874667335       11.3854738982
  H        44.6681696619       35.1161246121        23.803725077638
  H        24.4290160645        3.0454001457       12.0958932034
  H        25.5537764184        4.8880024428       13.3477216821
  H        23.1578281435        7.7707200351       11.2391519445
  H        22.0444963895        5.9160111546        9.9876230082
  H        23.7753181683        5.8017905757       14.8209204971
  H        44.9535236562       34.3902660797        9.6951926256
  H        44.9014567448       34.2066387889        22.480477088138
  H        40.6658298598       33.2087123134       10.8529662171
  H        23.1502634465        1.9577360636        8.0055346772
  H        25.7937398088       19.6767044176        19.926946540638
  H        23.6280855968       19.7129095430        18.692471269738
  H        22.3617281129       16.1972403279        20.821626073638
  H        24.5380034898       16.1678379729        22.047963548738
  H        23.7235195349       17.6700633906        17.240393705238
  H        35.1718345963       15.4177098744        20.011540775538
  H        37.2890831619       15.3784393885        18.694265378638
  H        38.6802674226       18.8306894946        20.850225660838
  H        36.5554313906       18.8536895427        22.169157686638
  H        37.2218732974       17.3553417773        17.235221697138
  H        20.3541458779       17.9717618549        20.659635621338
  H        35.1547674827       15.4309763602       12.0838424515
  H        37.2936685919       15.3533134040       13.3684333223
  H        38.7231737226       18.7673584261       11.1767824366
  H        36.5825537455       18.8231637682        9.8862137194
  H        37.2303699602       17.3371978573       14.7950033008
  H        35.1624987541       26.6821988932       11.4057306892
  H        28.5101665809       21.0814626755        23.875772516638
  H        25.7580484603       19.6320613700       12.1615177532
  H        23.5738634425       19.6855558909       13.3775307266
  H        22.3059514147       16.1770723628       11.2378047685
  H        24.4908500516       16.1440995197       10.0193556765
  H        23.7039890524       17.6557124497       14.8008383269
  H        29.0084372977       21.7226386870        9.7406879108
  H        29.1654825161       21.7389777298        22.544796034438
  H        32.0682025805       18.5603344043       10.9927418139
  H        27.4102022321       19.0778837810        8.0778593141
  H        14.8526209955       19.6497508424       12.1383491896
  H        17.0155871668       19.6959376244       13.3801603915
  H        18.3036061659       16.1861425122       11.2537856462
  H        16.1366248590       16.1559530542       10.0115205142
  H        16.9228795097       17.6979584944       14.8453118784
  H        46.0883442870       15.4297992713       12.0557126794
  H        43.9615619428       15.3593142499       13.3578127451
  H        42.5394241136       18.7977692715       11.1995173267
  H        44.6666412618       18.8430973291        9.8864678009
  H        44.0160004291       17.3042484656       14.8196573421
  H        20.2957698239       17.9222077158       11.4219903674
  H        46.0420200864       15.3862569872        20.023316880838
  H        43.9128478026       15.3238435199        18.725513267538
  H        42.5250181188       18.7973096406        20.849023817438
  H        44.6599677954       18.8450104853        22.149062477038
  H        44.0069591317       17.2962535018        17.258646835138
  H        46.1987555404       26.6824256956        20.613066718838
  H        52.7410432476       21.0626159471        8.1946807783
  H        14.8790247637       19.6749699623        19.888661490238
  H        17.0797494222       19.7481916878        18.708035351238
  H        18.3322901583       16.2257416879        20.834063153738
  H        16.1336737536       16.1767648198        22.024386349238
  H        16.9416494963       17.7128107480        17.282688039338
  H        52.3220895634       21.6731738286        22.284242178638
  H        52.0130722418       21.7019251070        9.4957312325
  H        49.0672490631       18.6080197118        21.194044965238
  H        13.2472493294       19.0165569656        23.967064559538
  H        29.9354548095       12.4688796602       12.2578810172
  H        28.8604184182       10.5414590092       13.4299963511
  H        25.2472394576       11.2001283563       11.1928454027
  H        26.3411993125       13.1156528405       10.0142063762
  H        27.1368862102       11.6897151742       14.7961263894
  H        31.0022764763       22.7739626000       12.0187840692
  H        32.0134778688       24.6488528930       13.3178910448
  H        35.7001140724       24.1378609673       11.1622496894
  H        34.6692939497       22.2682573293        9.8591825971
  H        33.6930589533       23.5666632875       14.7566179087
  H        25.6962637872        8.6014257200       11.4082000201
  H        30.9276916607       22.6286357599        19.845686274938
  H        31.9325801813       24.5189282069        18.574214010538
  H        35.5300005939       24.1677724366        20.907443260538
  H        34.5022081459       22.2886197230        22.190979126038
  H        33.6473320613       23.5482453009        17.192776352738
  H        40.6002479531       17.0950863939        20.642822402138
  H        32.5031171531       14.1492048506        8.2533703007
  H        29.8858288804       12.5474449948        19.885212903238
  H        28.8524171077       10.6467829175        18.634979624138
  H        25.2161558805       11.1645802510        20.872616210938
  H        26.2721366775       13.0485182536        22.131683651538
  H        27.1369077161       11.7021738006        17.235398089138
  H        33.3101454836       14.2331467709        22.459409985038
  H        33.4070465671       14.4070167090        9.5964233504
  H        32.1272885209       18.4511676534        21.141118254238
  H        30.2077730112       14.1866030376        8.0805104606
  H        16.1182229097        2.9632625224       12.1295975923
  H        14.9530830726        4.8203813190       13.3223472972
  H        17.3665440403        7.6858386131       11.2103969600
  H        18.5152239098        5.8181800054       10.0105920389
  H        16.7537296251        5.7396662831       14.7715188134
  H        44.8284637264       32.1401749454       11.9764845121
  H        45.9377805541       30.3412919853       13.3059157101
  H        43.6816066995       27.3781607515       11.1530293894
  H        42.5989084795       29.1899881517        9.8104211750
  H        44.2305305703       29.4367841673       14.7688052441
  H        14.8509772193        8.5459787438       11.3633244044
  H        44.9004396469       32.2339355522        19.922200258638
  H        46.0253214564       30.4128852970        18.642658306038
  H        43.7622526074       27.4840435216        20.834060674738
  H        42.6444859972       29.3176831225        22.113100103838
  H        44.2686707032       29.4705457145        17.207902241838
  H        35.0059937974       26.6249569672        20.635910772838
  H        36.6051245740       35.1338310789        8.1806998668
  H        16.1435002318        3.0129265049        19.894027310038
  H        14.9739329443        4.8563106126        18.678265620338
  H        17.3963028659        7.7471755771        20.744748501238
  H        18.5433403036        5.8931641763        21.972384436938
  H        16.7648009316        5.7555986376        17.209116322938
  H        36.2788170824       34.4820209516        22.263057497838
  H        36.3808611151       34.2090314785        9.4997902295
  H        40.5785194212       33.2012282380        21.143972501938
  H        17.4708259807        1.9466531136        23.963846186138
  H        29.1869704529       19.4028878507       12.5632932799
  H        28.7114684679       18.6747832071        19.768184006138
  H        31.8525656911       15.8050985803        19.539792351338
  H        31.2765963426       15.6171196404       12.5297149313
  H        27.8521441489       17.6955195962       14.2108410430
  H        29.1377930487       15.4538422600       14.3974161669
  H        31.0198100150       19.9277598686        18.745348610238
  H        32.2985921686       17.4744049816        17.246229357938
  H        18.8530443451        0.8689019072       12.3351575064
  H        40.5279614524       35.2290092517        19.941979024738
  H        42.3232825948       34.4181580352        19.580806991338
  H        22.0876487695        0.6921688467       12.3512283306
  H        11.5970175943       18.7128734738       12.3824201306
  H        52.2652546631       18.4308662988        19.667602535538
  H        49.2550071128       16.4771798791        19.574497687038
  H        10.1502255967       15.7981433028       12.2927358255
  H        50.8501359422       17.6925426449        19.944063938438
  H        10.0460095473       17.3944807257       12.0520246248
  H        20.2141583006        0.0020814678       12.0420397002
  H        39.1835346849       36.1242509289        19.676169812538
 Ni        30.5197358748       17.5221583796        18.656991720538
 Ni        30.7732793614       16.3105095209       15.905348944538
 Ni        29.3421993266       18.0547077068        16.081851364638
 Ni        29.9700063482       17.3533249196       13.1576182854