     566
 i =      152, E =     -4712.2686947705
  C        11.8586554287       14.0535534836        21.731328287538
  C        12.4561393465       12.8906002232        21.013061988438
  C        11.7045349220       12.1717104345        20.071292322538
  C        12.2809462283       11.1094934160        19.378984203938
  C        13.6214888439       10.7396250189        19.606836694138
  C        14.3545556330       11.4431457704        20.580423343038
  C        13.7816375479       12.5081298690        21.271892903838
  C        14.2610861574        9.6489653828        18.833470288438
  C        14.2565093178        9.6569147726        17.411769681038
  C        13.7434000941       10.7590529442        16.657846806838
  C        49.1267606268       21.2332333440        21.869439456038
  C        48.5500282059       22.4011988304        21.142496052038
  C        49.3000956855       23.0685383792        20.161513105938
  C        48.7332095852       24.1077143502        19.428338554738
  C        47.4026727170       24.5094296597        19.656932305538
  C        46.6717125424       23.8605656201        20.670463197738
  C        47.2341015763       22.8156140170        21.399803371038
  C        46.7724676480       25.5871354573        18.859615895538
  C        46.7615461890       25.5575163526        17.437843658638
  C        47.2615641808       24.4424603730        16.694348690238
  C        14.8605409645        8.5706099842        16.698526128738
  C        14.8918350692        8.5970059690        19.510139797638
  C        49.1130797423       21.2033530359       10.1452540576
  C        48.5277254327       22.3647355510       10.8723351087
  C        49.2669230785       23.0253307848       11.8653743960
  C        48.6906446096       24.0599023430       12.5968460076
  C        47.3602783982       24.4568505457       12.3585677482
  C        46.6399354877       23.8121086460       11.3348693160
  C        47.2134385255       22.7761991581       10.6030417480
  C        46.7218538012       25.5318152032       13.1496425569
  C        46.7337077188       25.5282406401       14.5713599106
  C        47.2492590931       24.4291142477       15.3277928932
  C        40.6177374034       17.0355310523       15.3110803378
  C        40.6389855214       17.0870716180       12.5012751316
  C        11.8830533110       14.0865205063       10.2855675930
  C        12.4724167658       12.9107481867       10.9897626353
  C        11.7150333049       12.1775201983       11.9159753009
  C        12.2817305681       11.0951007247       12.5843633896
  C        13.6205622084       10.7214063371       12.3524612661
  C        14.3583782812       11.4369697495       11.3915246525
  C        13.7928450684       12.5180988994       10.7188550805
  C        14.2542755801        9.6247049195       13.1228816362
  C        14.2529104302        9.6446461973       14.5447275651
  C        13.7429727752       10.7535669314       15.2918017166
  C        22.5241097863        3.2496623205        21.747269550138
  C        23.2627849558        4.3558854223        21.064596559838
  C        24.2766061372        4.0737944907        20.135897691838
  C        24.9257102395        5.1103547130        19.467396311238
  C        24.5806277573        6.4566713071        19.703679627838
  C        23.5970155998        6.7304444744        20.672306884238
  C        22.9434325551        5.6953078814        21.340021061138
  C        25.1963373865        7.5595346676        18.921157665338
  C        25.1430263804        7.5515948401        17.498760835538
  C        24.4259939251        6.5528144120        16.765445313438
  C        38.2979548148       31.9283144234        21.841909988738
  C        37.5561885523       30.8401003090        21.140942248538
  C        36.5901833198       31.1476039756        20.170252239538
  C        35.9596650547       30.1301503764        19.459238624838
  C        36.2798813649       28.7787565528        19.695388180438
  C        37.2150111848       28.4786969517        20.704057843338
  C        37.8493852895       29.4950851613        21.414670190638
  C        35.6704454131       27.6904553515        18.896218773238
  C        35.7109711431       27.7046232388        17.474511702538
  C        36.4218077933       28.7066501216        16.741390641638
  C        25.7539885537        8.6199155185        16.765091074538
  C        25.8186490273        8.6313193705        19.577200413038
  C        38.3302335062       31.9606104248       10.1604861813
  C        37.6132703426       30.8878653091       10.9100143634
  C        36.6800074684       31.1977676776       11.9115576819
  C        36.0696788319       30.1812415345       12.6445341358
  C        36.3773404417       28.8273894312       12.4010030511
  C        37.2914704501       28.5274394380       11.3720203620
  C        37.9035140126       29.5404575924       10.6399675963
  C        35.7626693303       27.7289471233       13.1834487831
  C        35.7577409410       27.7245882162       14.6062221494
  C        36.4427995863       28.7172149602       15.3749435786
  C        46.1356626442       26.6208651843       15.2814994353
  C        46.0877829906       26.5801240874       12.4735945215
  C        22.4574518033        3.2571339557       10.2650966042
  C        23.1419695586        4.3646951253       11.0017596869
  C        24.1389964966        4.0766986108       11.9478693019
  C        24.7626628231        5.1041783079       12.6525989666
  C        24.4105885251        6.4516203079       12.4351054659
  C        23.4322170607        6.7325563022       11.4619323136
  C        22.8043769353        5.7053977023       10.7572196498
  C        25.0501166060        7.5501548885       13.2040801858
  C        25.0676992132        7.5463744795       14.6276815330
  C        24.3889914933        6.5507878013       15.3990227435
  C        26.6097122431       17.8510900576        21.775052017238
  C        25.3037221510       17.8982912725        21.055383092038
  C        25.0438569261       18.8958677711        20.101642830338
  C        23.8325494055       18.9139876539        19.413781059238
  C        22.8437144508       17.9392769436        19.657990811438
  C        23.0987617983       16.9657417997        20.642604267038
  C        24.3125403188       16.9409593208        21.327602647938
  C        21.5724265347       17.9251939334        18.891164789438
  C        21.5749965004       17.9076128635        17.468504989838
  C        22.7815537398       17.7836893038        16.709925885238
  C        34.3777630080       17.2057595694        21.826165551838
  C        35.6705377188       17.1043487115        21.093630170538
  C        35.8687479213       16.1291496306        20.103532993538
  C        37.0665648079       16.0838906966        19.393510008738
  C        38.0959232289       17.0118326117        19.650310217838
  C        37.8995750155       17.9624320304        20.670403128038
  C        36.7031149529       18.0125068127        21.379247772338
  C        39.3573858047       17.0129297125        18.873883842638
  C        39.3567090377       17.0343475073        17.451803191038
  C        38.1514162008       17.1613149505        16.691841856438
  C        20.3294493986       17.9290426770        16.758010738138
  C        20.3468598702       17.9271662117        19.571656693938
  C        34.4428010813       17.2385432875       10.1865676967
  C        35.7459726284       17.1319549368       10.9038417888
  C        35.9510744853       16.1434473095       11.8783098502
  C        37.1427639657       16.1033374675       12.5978415697
  C        38.1580822007       17.0523508140       12.3666803138
  C        37.9590837236       18.0141726838       11.3581253869
  C        36.7676067727       18.0579191574       10.6397881871
  C        39.4059951058       17.0610523414       13.1633026970
  C        39.3815242290       17.0595744109       14.5849986755
  C        38.1629712642       17.1714701260       15.3256506300
  C        35.1211414360       26.6460062945       15.3067498549
  C        35.1787091795       26.6563737098       12.4968665795
  C        26.5723121595       17.8284707399       10.3250283377
  C        25.2597597647       17.8698954792       11.0346905163
  C        25.0003965370       18.8700204904       11.9843097022
  C        23.7827040331       18.8961352208       12.6584393945
  C        22.7953605796       17.9224064105       12.4067935653
  C        23.0501528854       16.9466556333       11.4260679334
  C        24.2684719834       16.9180838592       10.7502076278
  C        21.5309371981       17.9053669015       13.1783329114
  C        21.5533691766       17.8953761153       14.5999743674
  C        22.7705332536       17.7773380545       15.3436346755
  C        14.0472654626       17.8294018775       10.2886214408
  C        15.3524001790       17.8876798404       11.0130358025
  C        15.6095737303       18.8918969829       11.9595330349
  C        16.8188957985       18.9136755331       12.6519875554
  C        17.8057278034       17.9340159024       12.4204631148
  C        17.5534673935       16.9542808768       11.4414763044
  C        16.3436375192       16.9279744657       10.7505061031
  C        19.0744616809       17.9165125590       13.1905999104
  C        19.0717651532       17.9133530597       14.6132094732
  C        17.8637076040       17.8166161675       15.3729887064
  C        46.8038342560       17.2167273645       10.1582900835
  C        45.5129328945       17.1462577194       10.9031267399
  C        45.3110675055       16.1585497442       11.8798321061
  C        44.1287464458       16.1262287122       12.6144789419
  C        43.1172192890       17.0816289744       12.3952664517
  C        43.3169181342       18.0502899021       11.3928313373
  C        44.5000938785       18.0861677902       10.6585229921
  C        41.8622241421       17.0754491155       13.1821666410
  C        41.8656106997       17.0625167978       14.6046298392
  C        43.0720382708       17.1604807732       15.3672467182
  C        20.3177757631       17.9219254105       15.3231446882
  C        20.2996112507       17.8958006482       12.5100737171
  C        46.7804186286       17.2285218541        21.877923739538
  C        45.4748264307       17.1089525978        21.163038575438
  C        45.2641152051       16.1009625445        20.209032137838
  C        44.0748763610       16.0534290761        19.484681554938
  C        43.0623602392       17.0100216558        19.695377390638
  C        43.2639248787       17.9886555971        20.687343657438
  C        44.4549802420       18.0427015265        21.406958746838
  C        41.8141732568       17.0106615833        18.895927341038
  C        41.8411165191       17.0277659675        17.473721690138
  C        43.0604495056       17.1424066012        16.734132282338
  C        46.1534712422       26.6373442228        16.716059295338
  C        46.1624399620       26.6562466611        19.525712873438
  C        14.0444431050       17.8308987728        21.698247014238
  C        15.3642992639       17.9032588345        21.006484915438
  C        15.6392852798       18.9205589448        20.080544397838
  C        16.8680103760       18.9566129853        19.425408251738
  C        17.8484349218       17.9742585487        19.670515160038
  C        17.5800185043       16.9852897654        20.634151001838
  C        16.3535487329       16.9489398094        21.293095897638
  C        19.1158252073       17.9489630369        18.902658597438
  C        19.0934551873       17.9290704300        17.481195658538
  C        17.8742723223       17.8236973584        16.739031737938
  C        28.8031127358       14.0874004549       10.3940948919
  C        28.1900355067       12.9110665814       11.0760738460
  C        28.9128705878       12.1662478914       12.0200570969
  C        28.3122039717       11.0919971428       12.6714613430
  C        26.9733454671       10.7381358196       12.4063586713
  C        26.2727107834       11.4620818470       11.4245880919
  C        26.8715357046       12.5360741210       10.7700063496
  C        26.3055285761        9.6626402359       13.1766220432
  C        26.3130077677        9.6924343035       14.5980947692
  C        26.8222199852       10.8096721302       15.3328444754
  C        32.1808595600       21.2412247010       10.1477917641
  C        32.7772358088       22.4032897091       10.8681339608
  C        32.0280762716       23.0795921461       11.8438148221
  C        32.5972797721       24.1193571890       12.5725098191
  C        33.9314961318       24.5116061389       12.3485577908
  C        34.6629153901       23.8536415557       11.3413266510
  C        34.0964381622       22.8084641546       10.6137469033
  C        34.5574127172       25.5871208183       13.1523511730
  C        34.5373657542       25.5604217830       14.5745846464
  C        34.0256265333       24.4451267284       15.3103136692
  C        25.7183683771        8.6146126359       15.3297960777
  C        25.6571386553        8.6107101933       12.5160941472
  C        32.0814397625       21.1991165234        21.863437440138
  C        32.6484862196       22.3668959795        21.131213368038
  C        31.9224846550       22.9959741628        20.107638453138
  C        32.4941255007       24.0368385115        19.378310761938
  C        33.8057465073       24.4762963814        19.648798494438
  C        34.5109397413       23.8606321624        20.701713806638
  C        33.9449127791       22.8174862129        21.428602172738
  C        34.4478312832       25.5585981654        18.865931284538
  C        34.4804612486       25.5458841401        17.443096667538
  C        33.9976264678       24.4384771681        16.676910711138
  C        40.6052355207       17.0200073119        16.746231176438
  C        40.5801554881       17.0180886202        19.557091052538
  C        28.8346031816       14.1417325387        21.750072704238
  C        28.2455830676       12.9867410806        21.006813110438
  C        28.9633166021       12.3061485375        20.010688253438
  C        28.3870834712       11.2255579452        19.342150051538
  C        27.0756928651       10.7967491701        19.638429641038
  C        26.3774099392       11.4682763094        20.660228253338
  C        26.9509766700       12.5452321136        21.331701005438
  C        26.4224497458        9.6938530897        18.886832434238
  C        26.3744297675        9.7076269509        17.464787874938
  C        26.8488002363       10.8184349655        16.698175559638
  C        18.1357508831        3.1809261140       10.3169781356
  C        17.4066023516        4.2782942865       11.0156892381
  C        16.3907501879        3.9999963801       11.9430757834
  C        15.7431105632        5.0399991176       12.6066448696
  C        16.0952154800        6.3837032196       12.3671542149
  C        17.0847497417        6.6531726256       11.4035218367
  C        17.7337505053        5.6158023861       10.7383946519
  C        15.4708516173        7.4914159225       13.1302103789
  C        15.4859691257        7.4906783041       14.5519390222
  C        16.1873964796        6.4970017561       15.3051531864
  C        42.9457725460       31.8595489408       10.0728301618
  C        43.6461177318       30.7718475691       10.8168153139
  C        44.5917716617       31.0931461206       11.8027733311
  C        45.1974795710       30.0875903109       12.5504321703
  C        44.8709278608       28.7345393802       12.3356808288
  C        43.9449481795       28.4202192844       11.3226028386
  C        43.3361343151       29.4253736759       10.5745626016
  C        45.4885732515       27.6552479469       13.1388686244
  C        45.4928437890       27.6809247393       14.5605693159
  C        44.8057492317       28.6889772523       15.3071792224
  C        14.8569155462        8.5631378257       15.2642916796
  C        14.8755854640        8.5631991781       12.4516100567
  C        42.9464312996       31.9618466105        21.798766199638
  C        43.6916640664       30.8857016575        21.085209982538
  C        44.6564895156       31.1915618360        20.113123321138
  C        45.2780187966       30.1719591602        19.395401834838
  C        44.9540369418       28.8216565693        19.632851796638
  C        44.0202528364       28.5240233210        20.643355359038
  C        43.3919854688       29.5408108064        21.355513552938
  C        45.5631338466       27.7242260286        18.847635734738
  C        45.5334484077       27.7174885469        17.426332572838
  C        44.8270762195       28.7076680517        16.673363099338
  C        35.0945105358       26.6372944244        16.742228458538
  C        35.0553075255       26.6183375571        19.552418074338
  C        18.1489348077        3.2469769567        21.696493259738
  C        17.4301770628        4.3438882245        20.987428424838
  C        16.4148944360        4.0525690159        20.063933970738
  C        15.7665649974        5.0831562322        19.388486055338
  C        16.1212262010        6.4284094461        19.611123812638
  C        17.1125945404        6.7118377813        20.568380899838
  C        17.7603173864        5.6829689100        21.248194036838
  C        15.4907390523        7.5240846478        18.838592439738
  C        15.4967146466        7.5074911428        17.417445523338
  C        16.1934788445        6.5057757572        16.670764112038
  H        10.6724221704       12.4658379468        19.894182206438
  H        11.6947045733       10.5510240213        18.652397764338
  H        15.3915591750       11.1685161791        20.762262232638
  H        14.3510667172       13.0712849296        22.007408464838
  H        13.3763539254       11.6311701786        17.191143516438
  H        50.3227993061       22.7485021580        19.976748327438
  H        49.3197466942       24.6229790208        18.670800161738
  H        45.6422415334       24.1613948773        20.853663184438
  H        46.6630205365       22.2904116247        22.161872735038
  H        47.6301960143       23.5761199084        17.236025234938
  H        14.8721207568        8.5882329013        20.598444674738
  H        50.2869321330       22.7024088672       12.0603497984
  H        49.2690711482       24.5752667474       13.3603851013
  H        45.6106039480       24.1095240868       11.1456762074
  H        46.6526221930       22.2542667462        9.8313176717
  H        47.6081111004       23.5519961441       14.7969457639
  H        40.6479134765       17.0646932781       11.4131901504
  H        48.6871779025       14.0950194070        23.789810832638
  H        10.6815432680       12.4664872478       12.0934364798
  H        11.6900069141       10.5246601389       13.2970808606
  H        15.3938118869       11.1591482080       11.2055018419
  H        14.3651360902       13.0874713541        9.9902910443
  H        13.3762048408       11.6222087318       14.7531684313
  H        47.9302060557       14.2183639070        9.7106768088
  H        47.7800355195       14.3742292616        22.485219106038
  H        49.0831722547       18.5523304558       10.8669768901
  H        10.4159910913       14.1344125429        7.9986591626
  H        24.5338552370        3.0342242531        19.944815759738
  H        25.7077486428        4.8847256247        18.745441777438
  H        23.3192218510        7.7644990441        20.866131410338
  H        22.1626378870        5.9040780849        22.067595115638
  H        23.8754940395        5.7958366023        17.316372241638
  H        36.3583868364       32.1918495192        19.974462053438
  H        35.2115418543       30.3735960583        18.707971625438
  H        37.4702066965       27.4383337755        20.894899410238
  H        38.5968612794       29.2696210635        22.171687576638
  H        36.9818240234       29.4576719688        17.290844301838
  H        25.8747298791        8.6148978892        20.664329304638
  H        36.4519615991       32.2421283510       12.1125022022
  H        35.3394409337       30.4293022149       13.4116731535
  H        37.5432963560       27.4871395358       11.1766971715
  H        38.6297201138       29.3115842855        9.8637484882
  H        37.0198230395       29.4759462012       14.8540620333
  H        46.1090925672       26.5874960826       11.3855560208
  H        44.6681618698       35.1161103257        23.803646891538
  H        24.4186557759        3.0383309671       12.1111049090
  H        25.5420352368        4.8712007118       13.3750136734
  H        23.1459511534        7.7673053476       11.2846979469
  H        22.0356923571        5.9222788332       10.0189599045
  H        23.8089828258        5.7931294563       14.8798746759
  H        44.9535644529       34.3904944432        9.6952617708
  H        44.9005846197       34.2064789913        22.480349349738
  H        40.6659680369       33.2093481784       10.8531164307
  H        23.1513067917        1.9580205502        8.0077499049
  H        25.8009091367       19.6538425134        19.913810715638
  H        23.6370987992       19.6928692986        18.679837077638
  H        22.3468742645       16.2044788712        20.840398889838
  H        24.5199212626       16.1746552252        22.070852512038
  H        23.7221968310       17.6616687138        17.239299363538
  H        35.0703523426       15.4204066770        19.895184408438
  H        37.2177287632       15.3217428702        18.632195256338
  H        38.6845288073       18.6875637259        20.874848622738
  H        36.5374067926       18.7627276191        22.148587676338
  H        37.2105461514       17.2850002713        17.220043557038
  H        20.3517575427       17.9644255434        20.659613969538
  H        35.1582158454       15.4249701189       12.0729766032
  H        37.2981343513       15.3335348436       13.3505397601
  H        38.7349397611       18.7542515530       11.1732707021
  H        36.5952311286       18.8200908718        9.8837435260
  H        37.2311982615       17.3019208218       14.7828793979
  H        35.1605774405       26.6809806706       11.4089132110
  H        28.5097912424       21.0798666777        23.869523362038
  H        25.7648336269       19.6202348974       12.1745600790
  H        23.5811169684       19.6764518404       13.3891509565
  H        22.2963505324       16.1877859975       11.2263780468
  H        24.4805288636       16.1533197010       10.0068813352
  H        23.7028022951       17.6505482729       14.8015111127
  H        28.9855524259       21.7290986337        9.7553273876
  H        29.1666396493       21.7320491435        22.539142614038
  H        32.0519216609       18.5817925129       11.0036733842
  H        27.4124122038       19.0774292829        8.0847954484
  H        14.8511627622       19.6510364374       12.1374938443
  H        17.0140517700       19.6987742745       13.3793687829
  H        18.3046037320       16.1898431525       11.2533133688
  H        16.1378001124       16.1580040609       10.0107244728
  H        16.9215226488       17.7037030510       14.8445919742
  H        46.0979458424       15.4290222203       12.0562472511
  H        43.9737920865       15.3517626608       13.3624923068
  H        42.5448381790       18.7970525195       11.2193155876
  H        44.6690840551       18.8480207527        9.9010074179
  H        44.0142425625       17.2833972302       14.8407344612
  H        20.2950377762       17.9261191664       11.4219351376
  H        46.0487045078       15.3679073295        20.035865423938
  H        43.9184413356       15.2702221530        18.746008990638
  H        42.4896245474       18.7336478806        20.858678368038
  H        44.6276382565       18.8180932538        22.149535575338
  H        43.9937528603       17.2505466450        17.279153254038
  H        46.1991994085       26.6828100974        20.613160502638
  H        52.7412362410       21.0627619014        8.1947134908
  H        14.8804932775       19.6766885316        19.891445711238
  H        17.0813376293       19.7485382807        18.710671135438
  H        18.3287348232       16.2205330456        20.830251145638
  H        16.1304185970       16.1730861354        22.021391496338
  H        16.9399821755       17.7162505182        17.281827687438
  H        52.3229112711       21.6734640149        22.283953773638
  H        52.0137313011       21.7025015283        9.4957863059
  H        49.0668245386       18.6072316188        21.193935283038
  H        13.2473521028       19.0164021555        23.967085671138
  H        29.9425098449       12.4452470829       12.2320457919
  H        28.8749989328       10.5154562700       13.4023900413
  H        25.2383982138       11.2003050733       11.2109296222
  H        26.3259504528       13.1164901455       10.0300361956
  H        27.1660287869       11.6819863099       14.7852757913
  H        31.0040607861       22.7639126039       12.0281035028
  H        32.0105322702       24.6412955255       13.3252146290
  H        35.6955966728       24.1458205087       11.1620287591
  H        34.6686241606       22.2764300904        9.8572430170
  H        33.6789827248       23.5727026898       14.7637637068
  H        25.6714707326        8.5875414376       11.4278273150
  H        30.9177307243       22.6440669290        19.883738907638
  H        31.9231470601       24.5235799926        18.590704563238
  H        35.5260408397       24.1865973633        20.918677569738
  H        34.4991535176       22.3212174855        22.221627742038
  H        33.6299742153       23.5602517437        17.200015413538
  H        40.5708916913       16.9795329202        20.644805627038
  H        32.5221617517       14.1295056154        8.3608205414
  H        29.9744715887       12.6321363092        19.776373665838
  H        28.9563980877       10.6962948631        18.581058219238
  H        25.3625605008       11.1572602487        20.899566433238
  H        26.4035143706       13.0722592581        22.109078850438
  H        27.2107245568       11.6988229318        17.220958460638
  H        33.2855678743       14.1456752508        22.419121487638
  H        33.4041740749       14.4399214260        9.6742636201
  H        32.1323875655       18.4710443262        21.042044311938
  H        30.2274295165       14.1893238771        8.1342540671
  H        16.1184904618        2.9635154000       12.1293238475
  H        14.9535248110        4.8206138004       13.3221574346
  H        17.3673337567        7.6860283928       11.2105221101
  H        18.5158402288        5.8184169862       10.0105894534
  H        16.7539364948        5.7396269635       14.7716790264
  H        44.8281480991       32.1402177199       11.9768883811
  H        45.9374443511       30.3413344810       13.3062833117
  H        43.6821004653       27.3781720744       11.1525893367
  H        42.5994116317       29.1900459531        9.8099942098
  H        44.2303214512       29.4366849770       14.7688673127
  H        14.8519116459        8.5464449724       11.3633861622
  H        44.9002093566       32.2342232143        19.921796124538
  H        46.0250853986       30.4131732237        18.642317942838
  H        43.7630155360       27.4843255399        20.834723101938
  H        42.6452224272       29.3180142935        22.113698642738
  H        44.2685371060       29.4705346593        17.207946140038
  H        35.0041315621       26.6333025926        20.639505219438
  H        36.6051861036       35.1340524627        8.1808737495
  H        16.1437679677        3.0129889945        19.894287442738
  H        14.9742046156        4.8562381776        18.678459919538
  H        17.3961006603        7.7473115935        20.745232026338
  H        18.5432311335        5.8934715701        21.972903033238
  H        16.7647911175        5.7554632042        17.209232114638
  H        36.2788524950       34.4823515957        22.263069742638
  H        36.3813189222       34.2089563203        9.4997505026
  H        40.5791716373       33.2025128621        21.143750634738
  H        17.4718265591        1.9471499119        23.964000048438
  H        29.0684608440       19.3382932490       12.4966426439
  H        28.7047315959       18.8163551646        19.748885578438
  H        31.1788012346       15.5940787052       12.5944616156
  H        27.7676186876       17.8247587647       14.1012489812
  H        29.2698817957       15.5404399218       14.5853296075
  H        32.5703359697       17.4059131628        17.420278644538
  H        18.8532505066        0.8686264572       12.3355948040
  H        40.5275857511       35.2291113613        19.941711128438
  H        42.3248398266       34.4193673073        19.580451767738
  H        22.0879299224        0.6922215184       12.3510212407
  H        11.5970167992       18.7127079735       12.3823190457
  H        52.2651296067       18.4313238065        19.667334122238
  H        49.2552451034       16.4770176584        19.574020292238
  H        10.1497704779       15.7983297505       12.2930320738
  H        50.8503095823       17.6926217181        19.943948708438
  H        10.0458297518       17.3946122075       12.0519360032
  H        20.2147847682        0.0022632767       12.0420388908
  H        39.1835229308       36.1243844635        19.676033540538
 Ni        30.5188092952       17.9678787319        18.488672429338
 Ni        30.9021324407       16.4791287617        16.071600261438
 Ni        29.3395406393       18.2601428690        15.993011317638
 Ni        29.9698124490       17.4043149434       13.2375110937
  O        10.6498284784       14.3652027296        21.475626840238
  O        12.6131150477       14.6575158585        22.573693402938