     570
 i =      220, E =     -4745.6127001936
  C        11.8587108974       14.0536272450        21.731327193738
  C        12.4562206494       12.8906195896        21.013023213438
  C        11.7045341223       12.1717523548        20.071324493938
  C        12.2808866006       11.1095069906        19.379001618738
  C        13.6214509365       10.7397078336        19.606752645038
  C        14.3546284779       11.4432709548        20.580209199738
  C        13.7817694466       12.5082920534        21.271677281038
  C        14.2609846424        9.6490329889        18.833370171338
  C        14.2563930553        9.6569621362        17.411668187738
  C        13.7432781273       10.7591193180        16.657775527738
  C        49.1267996722       21.2332315753        21.869502051938
  C        48.5500084885       22.4011182531        21.142339301338
  C        49.3001250358       23.0685422396        20.161477434738
  C        48.7331869855       24.1076853007        19.428287852538
  C        47.4025899216       24.5091991853        19.656793473738
  C        46.6715349556       23.8601602946        20.670116624038
  C        47.2339701601       22.8152428326        21.399469589838
  C        46.7723878730       25.5869429882        18.859541983138
  C        46.7613911517       25.5573686129        17.437779855038
  C        47.2613279765       24.4422750240        16.694287695838
  C        14.8603860348        8.5706418228        16.698425292338
  C        14.8916666042        8.5970400388        19.510036222938
  C        49.1131307622       21.2033739100       10.1453495448
  C        48.5277310779       22.3647170313       10.8725370279
  C        49.2670278298       23.0255625462       11.8653096084
  C        48.6906972898       24.0601230810       12.5967621028
  C        47.3602246100       24.4567562955       12.3586403725
  C        46.6396991115       23.8116707026       11.3353140025
  C        47.2132624689       22.7757548047       10.6035423977
  C        46.7218014734       25.5317515933       13.1496619317
  C        46.7335875116       25.5281653475       14.5713646554
  C        47.2490271803       24.4289490453       15.3277362984
  C        40.6298485952       17.0982985162       15.3247549026
  C        40.6543926799       17.1440608528       12.5156873429
  C        11.8830017845       14.0865667268       10.2854410307
  C        12.4723491831       12.9107309296       10.9896870331
  C        11.7148208422       12.1775522604       11.9157897611
  C        12.2813867642       11.0950980791       12.5842410132
  C        13.6201990238       10.7213751798       12.3524169161
  C        14.3581907404       11.4369045361       11.3916086044
  C        13.7927725633       12.5180718702       10.7189020622
  C        14.2537940031        9.6246085006       13.1228123496
  C        14.2526147077        9.6446445279       14.5446514825
  C        13.7427561779       10.7535952617       15.2917302036
  C        22.5110910902        3.2440810000        21.742886337038
  C        23.2244603203        4.3497892261        21.042830592738
  C        24.2217273742        4.0704157296        20.096871081338
  C        24.8472333804        5.1104837197        19.414294315438
  C        24.4908136973        6.4516969495        19.657867536938
  C        23.5216545877        6.7227179877        20.640788018738
  C        22.8915706533        5.6844483016        21.321680259638
  C        25.0952635192        7.5586539846        18.882242026038
  C        25.0671045245        7.5521331150        17.460779255238
  C        24.3650878958        6.5527733162        16.714546916638
  C        38.3020910756       31.9299864341        21.839481430538
  C        37.5709353166       30.8408850085        21.131289444838
  C        36.6084642068       31.1452277511        20.156527961038
  C        35.9896328475       30.1252781403        19.439320674538
  C        36.3189823615       28.7761528328        19.675041525838
  C        37.2516545148       28.4791474290        20.686515313038
  C        37.8743568315       29.4978393361        21.402848910438
  C        35.7157355017       27.6853529702        18.877405690938
  C        35.7451721941       27.7025210958        17.456066453238
  C        36.4504214951       28.7058964289        16.719539832638
  C        25.6897446956        8.6223266583        16.741047035338
  C        25.6923110505        8.6333076112        19.553383327438
  C        38.3289428587       31.9624784942       10.1565266272
  C        37.6072207144       30.8903574718       10.8994332533
  C        36.6772332592       31.2009217552       11.9033741628
  C        36.0658156618       30.1837735824       12.6335651872
  C        36.3702415972       28.8307804499       12.3832740992
  C        37.2783553585       28.5301420844       11.3496335719
  C        37.8918490182       29.5438034488       10.6206578869
  C        35.7600342147       27.7328758733       13.1672019270
  C        35.7676535654       27.7269416559       14.5891927592
  C        36.4607418265       28.7178523627       15.3530306214
  C        46.1356194602       26.6208302205       15.2814898633
  C        46.0878114564       26.5800786446       12.4736008418
  C        22.4605026414        3.2559105440       10.2575999822
  C        23.1538390305        4.3653086121       10.9804461092
  C        24.1570985702        4.0804115687       11.9202945951
  C        24.7839359066        5.1113407119       12.6162047786
  C        24.4276445824        6.4566973166       12.3946427168
  C        23.4474548608        6.7349400050       11.4232702792
  C        22.8159425496        5.7042435067       10.7279628037
  C        25.0569934401        7.5555631725       13.1691627282
  C        25.0477367967        7.5501536472       14.5919103041
  C        24.3540628835        6.5529905751       15.3478942407
  C        26.6250089758       17.8640090818        21.774767693338
  C        25.3168810829       17.9072698829        21.049908284338
  C        25.0604410373       18.8971876971        20.088207742538
  C        23.8471653785       18.9172215416        19.402692534038
  C        22.8527930732       17.9501836789        19.655838536338
  C        23.1057211922       16.9827929658        20.646782896438
  C        24.3210412606       16.9576383008        21.330075547238
  C        21.5792703879       17.9354324021        18.891436346738
  C        21.5787560319       17.9120829212        17.468746189138
  C        22.7838774329       17.7844366804        16.708294736538
  C        34.4230452018       17.2209097960        21.902693023738
  C        35.7142032359       17.1510918879        21.159155665638
  C        35.9105256901       16.1804599048        20.164607308738
  C        37.0933567248       16.1541810613        19.430578224238
  C        38.1119746235       17.0969608943        19.671265154538
  C        37.9182445847       18.0467819766        20.692556233938
  C        36.7334925571       18.0783438282        21.423923677738
  C        39.3680070918       17.0970774698        18.886845139238
  C        39.3668489069       17.1118979690        17.464862322538
  C        38.1618942111       17.2376465724        16.704138931638
  C        20.3322928086       17.9320115898        16.759725045938
  C        20.3539615261       17.9401880284        19.573135306038
  C        34.4746373483       17.2445809961       10.1819277174
  C        35.7783288387       17.1629819468       10.9017924361
  C        35.9898503537       16.1745188205       11.8744839003
  C        37.1754355292       16.1504415354       12.6030955359
  C        38.1772354480       17.1142543545       12.3784976717
  C        37.9725416108       18.0773397231       11.3729851873
  C        36.7848768995       18.1063477632       10.6470063651
  C        39.4220373112       17.1273191665       13.1772790893
  C        39.3946889560       17.1282241032       14.5984186680
  C        38.1751473811       17.2434994847       15.3374657161
  C        35.1358504367       26.6480278101       15.2924473804
  C        35.1704319316       26.6624663422       12.4833294372
  C        26.5725906777       17.8277289800       10.3260732881
  C        25.2578359479       17.8737999299       11.0327253068
  C        24.9972405747       18.8738953468       11.9819112886
  C        23.7794918065       18.8991946618       12.6561086522
  C        22.7929529614       17.9243602192       12.4051658354
  C        23.0483162262       16.9494695224       11.4237465924
  C        24.2666206431       16.9220351149       10.7476795226
  C        21.5293297042       17.9056970228       13.1781286628
  C        21.5532881067       17.8955584298       14.5997160431
  C        22.7712079968       17.7766001603       15.3420605324
  C        14.0469158405       17.8288451681       10.2891904579
  C        15.3513209136       17.8860367345       11.0151612179
  C        15.6079992050       18.8898262419       11.9622358078
  C        16.8168104242       18.9111365422       12.6556009120
  C        17.8036283259       17.9314380289       12.4243560708
  C        17.5516340247       16.9517335436       11.4452828583
  C        16.3423033884       16.9259021020       10.7534044172
  C        19.0728898472       17.9148449569       13.1936720079
  C        19.0718359639       17.9125803196       14.6163130699
  C        17.8648312248       17.8157995252       15.3777918479
  C        46.8059403650       17.2186741026       10.1597277334
  C        45.5183043150       17.1564385771       10.9085229499
  C        45.3159757970       16.1772104955       11.8934045238
  C        44.1365086913       16.1569900849       12.6327647988
  C        43.1297107727       17.1163565564       12.4094053569
  C        43.3298544259       18.0760478291       11.3985776616
  C        44.5098564234       18.0999230314       10.6598502474
  C        41.8765647516       17.1231865767       13.1974882228
  C        41.8786096412       17.1130431103       14.6193858084
  C        43.0855837461       17.2018359313       15.3816880384
  C        20.3187279132       17.9224861674       15.3247124434
  C        20.2971549575       17.8951212714       12.5115191684
  C        46.7831290681       17.2290214912        21.880895809338
  C        45.4773888734       17.1159676362        21.170623337738
  C        45.2602860429       16.1139959175        20.212463560838
  C        44.0707075357       16.0802363871        19.488981201438
  C        43.0679890485       17.0452440589        19.706309143938
  C        43.2746946286       18.0155307048        20.704775320138
  C        44.4655965010       18.0558545501        21.423263082738
  C        41.8227851585       17.0647917283        18.906901220338
  C        41.8511134221       17.0818845848        17.485852164338
  C        43.0724797330       17.1848630788        16.748059288538
  C        46.1533939960       26.6372592415        16.716036489038
  C        46.1624100730       26.6560360648        19.525680816038
  C        14.0458526994       17.8321233160        21.698832064238
  C        15.3674279907       17.9073929016        21.009189541838
  C        15.6413690538       18.9236942921        20.081696172638
  C        16.8708033238       18.9617797039        19.427603005538
  C        17.8541012138       17.9827068307        19.675050235638
  C        17.5871075305       16.9955516581        20.641112085438
  C        16.3597361028       16.9569877236        21.298770823238
  C        19.1215062648       17.9577098953        18.906027957338
  C        19.0971588595       17.9332751513        17.484488019238
  C        17.8772253758       17.8250043005        16.743806613138
  C        28.8097491267       14.0926082422       10.3910941968
  C        28.1958482273       12.9190314754       11.0782176124
  C        28.9146235827       12.1835919722       12.0321879095
  C        28.3138304726       11.1092432625       12.6834228653
  C        26.9799184474       10.7473930741       12.4060313696
  C        26.2832653762       11.4634007951       11.4160160366
  C        26.8820451312       12.5373070775       10.7623211794
  C        26.3089955680        9.6686935482       13.1669921705
  C        26.2944082864        9.6958136652       14.5880866198
  C        26.7981877480       10.8083009381       15.3344154865
  C        32.1791051801       21.2434511371       10.1447504383
  C        32.7722132494       22.4115469727       10.8610970003
  C        32.0214722094       23.0908687938       11.8328975554
  C        32.5905883905       24.1304937998       12.5619353784
  C        33.9260976464       24.5183554505       12.3401723942
  C        34.6591565169       23.8580246327       11.3362102894
  C        34.0923483114       22.8130623940       10.6088075259
  C        34.5537507300       25.5933614528       13.1420372539
  C        34.5434750116       25.5650650946       14.5637534109
  C        34.0321345854       24.4507195516       15.3013204183
  C        25.6842057752        8.6179989685       15.3065250142
  C        25.6733707020        8.6173455021       12.4933946072
  C        32.0996745485       21.2253002667        21.871284946938
  C        32.6882493623       22.3783600284        21.127849107338
  C        31.9510632835       23.0433879491        20.135946521438
  C        32.5309276912       24.0735047913        19.399018811438
  C        33.8617301480       24.4695556585        19.636739657738
  C        34.5815618767       23.8187912665        20.656997275538
  C        34.0066470804       22.7827752502        21.388468802038
  C        34.5013058852       25.5515025323        18.852764141938
  C        34.5154885212       25.5443027681        17.430794998138
  C        34.0176150542       24.4413936583        16.667958654238
  C        40.6154624211       17.0860107017        16.759248501038
  C        40.5902518968       17.0898303018        19.568938936638
  C        28.7388940381       14.0672667601        21.808003202538
  C        28.1300785312       12.9215645559        21.069383089138
  C        28.8701059968       12.2114313366        20.111442946438
  C        28.2860713111       11.1578641309        19.411856675938
  C        26.9474778451       10.7855993163        19.648327114038
  C        26.2247145479       11.4819797471        20.635031076838
  C        26.8059059451       12.5378825059        21.334076202038
  C        26.3043379053        9.6955086665        18.875840967738
  C        26.2947948119        9.7088344588        17.454288354338
  C        26.7972671842       10.8154637180        16.700254485338
  C        18.1353464062        3.1809769095       10.3171911419
  C        17.4060228688        4.2782047874       11.0157577106
  C        16.3905464506        3.9998295435       11.9435418053
  C        15.7428037900        5.0398026559       12.6070263517
  C        16.0944162923        6.3835564732       12.3670591048
  C        17.0834748879        6.6530852127       11.4029578222
  C        17.7325748624        5.6157514639       10.7379153381
  C        15.4701952321        7.4912609850       13.1301457511
  C        15.4855467208        7.4906071466       14.5518554174
  C        16.1871604960        6.4970299456       15.3050208326
  C        42.9458270673       31.8594908631       10.0729966110
  C        43.6462372260       30.7718579241       10.8168740108
  C        44.5917522577       31.0931648056       11.8029777824
  C        45.1974892255       30.0875931008       12.5505678698
  C        44.8710559673       28.7345250162       12.3356962668
  C        43.9452410002       28.4202115259       11.3224628377
  C        43.3363842516       29.4253677081       10.5744796746
  C        45.4886481286       27.6552298353       13.1388706241
  C        45.4928587028       27.6809116546       14.5605596228
  C        44.8057805504       28.6889541370       15.3071973752
  C        14.8566033696        8.5631236260       15.2642023653
  C        14.8748989073        8.5630146780       12.4515384599
  C        42.9464963966       31.9614914837        21.798795515638
  C        43.6917302480       30.8854169509        21.085354915238
  C        44.6562021710       31.1913399088        20.112924138738
  C        45.2777111496       30.1717656558        19.395189745738
  C        44.9540898315       28.8214164076        19.632920778638
  C        44.0207133713       28.5237461180        20.643806148638
  C        43.3924623433       29.5404980308        21.356010892138
  C        45.5631241314       27.7240508741        18.847634432638
  C        45.5334308641       27.7174122974        17.426335323838
  C        44.8270416781       28.7075949454        16.673382590238
  C        35.1231508511       26.6365030600        16.727258243838
  C        35.1128951491       26.6086121287        19.537214040038
  C        18.1485001194        3.2469793674        21.696404533638
  C        17.4298742808        4.3438132645        20.987166424238
  C        16.4148907014        4.0525270499        20.063348539438
  C        15.7665767203        5.0831485001        19.387951662938
  C        16.1210068642        6.4284114657        19.610907417538
  C        17.1120643386        6.7118168094        20.568499173538
  C        17.7597263558        5.6829075289        21.248271960638
  C        15.4905676629        7.5241299125        18.838464668438
  C        15.4965661003        7.5075277072        17.417330021938
  C        16.1933887250        6.5058726602        16.670623286538
  H        10.6723998673       12.4658973722        19.894338362238
  H        11.6945782661       10.5510190071        18.652481364638
  H        15.3916667744       11.1686879321        20.761919082438
  H        14.3512223960       13.0715630701        22.007085339138
  H        13.3762087188       11.6312099420        17.191105006938
  H        50.3228678572       22.7485679918        19.976812269538
  H        49.3197154909       24.6230399316        18.670804354338
  H        45.6419596953       24.1607475585        20.853127353638
  H        46.6628408300       22.2898115250        22.161347085738
  H        47.6297905899       23.5758691671        17.235982093138
  H        14.8719052370        8.5882433462        20.598343206938
  H        50.2871290460       22.7028201886       12.0601001580
  H        49.2691300468       24.5756945833       13.3601556611
  H        45.6102186887       24.1087407164       11.1463943488
  H        46.6523551213       22.2534419459        9.8321406899
  H        47.6077308303       23.5517995941       14.7968368793
  H        40.6627354858       17.1188699981       11.4277105124
  H        48.6871017495       14.0949762419        23.789791054938
  H        10.6813448227       12.4666364697       12.0931527448
  H        11.6895687831       10.5246682493       13.2968882502
  H        15.3936212687       11.1590173223       11.2056780419
  H        14.3650961227       13.0874846690        9.9903943503
  H        13.3759314072       11.6221964690       14.7530752421
  H        47.9301266862       14.2184791644        9.7105647844
  H        47.7801081329       14.3741296133        22.485070951538
  H        49.0838039218       18.5524329810       10.8673625115
  H        10.4159116844       14.1343590952        7.9985561687
  H        24.4842577472        3.0320499885        19.906983084538
  H        25.6208332311        4.8940281673        18.680730420338
  H        23.2392240928        7.7553827756        20.834782155538
  H        22.1209685794        5.8837201747        22.062339019138
  H        23.8043735287        5.7956023566        17.254843407138
  H        36.3703756508       32.1885046206        19.963174097238
  H        35.2429563449       30.3643398106        18.685267788538
  H        37.5131837823       27.4400097277        20.875296394538
  H        38.6201737163       29.2768294616        22.162698605138
  H        37.0153106979       29.4554311514        17.266084604238
  H        25.7270698827        8.6160354242        20.641205544938
  H        36.4543215356       32.2455135080       12.1086208938
  H        35.3389268883       30.4299125620       13.4044498942
  H        37.5252544172       27.4895094190       11.1499911389
  H        38.6152630289       29.3168282512        9.8413604323
  H        37.0346940311       29.4761373997       14.8282275286
  H        46.1091122288       26.5873947196       11.3855632641
  H        44.6681932731       35.1161039983        23.803674241338
  H        24.4363168749        3.0425030866       12.0870505174
  H        25.5655017210        4.8834257768       13.3378709940
  H        23.1607669464        7.7690756664       11.2433340891
  H        22.0432368349        5.9161138468        9.9925537111
  H        23.7842404642        5.7964854657       14.8161335878
  H        44.9535584959       34.3901545917        9.6950209911
  H        44.9014528666       34.2066759544        22.480391174138
  H        40.6659130589       33.2089831449       10.8531109857
  H        23.1504224468        1.9576785353        8.0052033324
  H        25.8251151372       19.6456028235        19.893441895138
  H        23.6541006323       19.6919541313        18.663666249438
  H        22.3505478458       16.2267652142        20.852227303538
  H        24.5258621941       16.1969718297        22.079856423238
  H        23.7241953981       17.6619520395        17.237990075638
  H        35.1195532973       15.4581698042        19.976758461338
  H        37.2443495766       15.3941085160        18.667162984638
  H        38.6965215798       18.7828415079        20.883202071938
  H        36.5681706997       18.8261328082        22.196113312038
  H        37.2208888322       17.3623835340        17.232294846338
  H        20.3604155568       17.9816659320        20.660954771638
  H        35.2050176125       15.4442821905       12.0568811659
  H        37.3388817787       15.3818295037       13.3552957084
  H        38.7404059473       18.8275389152       11.1957154298
  H        36.6039207554       18.8676053098        9.8918230733
  H        37.2444070330       17.3713121398       14.7921114682
  H        35.1448197379       26.6879708844       11.3955810384
  H        28.5083475726       21.0745436103        23.962190907638
  H        25.7613008217       19.6243489370       12.1721799291
  H        23.5768222935       19.6794729307       13.3865780731
  H        22.2950624981       16.1901220158       11.2237578344
  H        24.4793879544       16.1577255270       10.0040169246
  H        23.7019848691       17.6480094136       14.7978068003
  H        29.0068496552       21.7208147338        9.7562808599
  H        29.1707727087       21.7374628861        22.620023085538
  H        32.0896290326       18.5638531655       10.9956484717
  H        27.4064817166       19.0733184013        8.0804080091
  H        14.8496845342       19.6491902111       12.1396513202
  H        17.0116494507       19.6960752899       13.3832397428
  H        18.3027426564       16.1871881057       11.2574583175
  H        16.1367693717       16.1561694113       10.0132859807
  H        16.9220804805       17.7013368747       14.8507143484
  H        46.0999734338       15.4451191623       12.0720462479
  H        43.9796392605       15.3891037437       13.3870846103
  H        42.5605370620       18.8249675621       11.2222964210
  H        44.6804774162       18.8547185506        9.8957731213
  H        44.0289028272       17.3168578131       14.8554649131
  H        20.2910146260       17.9254254229       11.4233909189
  H        46.0400170265       15.3767675306        20.035223953438
  H        43.9062275832       15.3033671791        18.745466086038
  H        42.5055130421       18.7648500671        20.879889057838
  H        44.6461283294       18.8248395164        22.170394339438
  H        44.0058249078       17.2856882008        17.294263016038
  H        46.1992196917       26.6825064349        20.613129620338
  H        52.7411242074       21.0626498823        8.1946569689
  H        14.8808832455       19.6774764451        19.889964366838
  H        17.0821321929       19.7528335401        18.711294079538
  H        18.3376099822       16.2332668684        20.840059271238
  H        16.1383955651       16.1818836066        22.028441971138
  H        16.9436914628       17.7176638588        17.287937473538
  H        52.3224047042       21.6732327393        22.284046421938
  H        52.0131564143       21.7019832245        9.4956667902
  H        49.0667131907       18.6072474902        21.194006161638
  H        13.2475303505       19.0163712163        23.967326784938
  H        29.9413479328       12.4692450408       12.2496438668
  H        28.8731025743       10.5370982334       13.4205117483
  H        25.2526868150       11.1938768441       11.1941998404
  H        26.3418563743       13.1114418115       10.0135444436
  H        27.1615704455       11.6769018001       14.7936831424
  H        30.9960404632       22.7769212049       12.0122759281
  H        32.0037122131       24.6566366353       13.3116707959
  H        35.6928478606       24.1483253966       11.1596689023
  H        34.6641024088       22.2770319056        9.8547189901
  H        33.6758906124       23.5827424275       14.7538935988
  H        25.7049704102        8.5972102008       11.4054497382
  H        30.9255371900       22.7335676577        19.949183082738
  H        31.9526139142       24.5899635134        18.635962339138
  H        35.6116887984       24.1135902133        20.846252840638
  H        34.5679318129       22.2578475588        22.157950631038
  H        33.6500055424       23.5660910200        17.195884608738
  H        40.5807729661       17.0518477347        20.656602035238
  H        32.5128032301       14.1539533136        8.2598061961
  H        29.9057792655       12.4940594150        19.936327198338
  H        28.8665638444       10.6034300455        18.677580337738
  H        25.1891224836       11.2067676250        20.824084531438
  H        26.2445861104       13.0922921930        22.082492073138
  H        27.1586847166       11.6895565627        17.234130307638
  H        33.2997087425       14.1974421314        22.433689683038
  H        33.4082836555       14.4104137434        9.6049606220
  H        32.1046416427       18.5409775061        21.162458751238
  H        30.2339018545       14.1953043847        8.0726334843
  H        16.1186757714        2.9633096842       12.1301429128
  H        14.9535118652        4.8204043844       13.3228544557
  H        17.3655806886        7.6859909497       11.2095341467
  H        18.5142999104        5.8184108519       10.0097361943
  H        16.7537183449        5.7396874623       14.7715309122
  H        44.8280817335       32.1402355309       11.9771587172
  H        45.9373644350       30.3413042625       13.3065144503
  H        43.6825307756       27.3781490198       11.1523206249
  H        42.5998110717       29.1899966450        9.8097838290
  H        44.2303343659       29.4366615963       14.7689074270
  H        14.8510317914        8.5462436258       11.3633217528
  H        44.8996561155       32.2340229805        19.921386565838
  H        46.0245281529       30.4129914686        18.641867232938
  H        43.7638537872       27.4840088583        20.835468611138
  H        42.6460847868       29.3176376894        22.114556614338
  H        44.2684684886       29.4704444210        17.207949178138
  H        35.0724515612       26.6192102707        20.624782532138
  H        36.6050247422       35.1340835326        8.1806150586
  H        16.1439746859        3.0129351984        19.893443408238
  H        14.9744224094        4.8562906041        18.677678991138
  H        17.3953123902        7.7473122397        20.745648236738
  H        18.5423368419        5.8933653222        21.973318941338
  H        16.7648419741        5.7556468255        17.209055890938
  H        36.2784282335       34.4825906209        22.263011384638
  H        36.3806130317       34.2093170911        9.4996754211
  H        40.5801145985       33.2023968998        21.143467907438
  H        17.4706633054        1.9473661211        23.963929966838
  H        29.0548862826       19.3869714760       12.5179004411
  H        29.4996490527       19.5592605907        19.529273810638
  H        30.3714853757       15.6903307297        19.924910540138
  H        31.1523400015       15.5571394192       12.5108147385
  H        27.7385415542       17.8462475947       14.4887768942
  H        29.1815757044       15.3094994818       14.5155900075
  H        31.3089585273       19.3928062824        17.286207037238
  H        32.0457298857       16.0445993955        17.932792783538
  H        18.8535961332        0.8691604166       12.3352696977
  H        40.5278649258       35.2290592194        19.941846874438
  H        42.3239466005       34.4187566785        19.580397906838
  H        22.0879425648        0.6921238861       12.3515906267
  H        11.5970444523       18.7130853279       12.3823478336
  H        52.2651585744       18.4311743836        19.667299948338
  H        49.2557419348       16.4771531611        19.574112021938
  H        10.1508492690       15.7982056319       12.2926573384
  H        50.8502593674       17.6923936112        19.944103968738
  H        10.0464059200       17.3945055919       12.0520042648
  H        20.2148395210        0.0023587833       12.0420159868
  H        39.1835419097       36.1244787551        19.676234122138
 Ni        30.7326377983       17.7450887657        18.821864791638
 Ni        30.8188984385       16.5129038832       15.824729615338
 Ni        29.5097726973       18.5475985718       15.989029629538
 Ni        30.0601860363       17.4468812048       13.3230540229