     569
 i =      103, E =     -4729.5139698984
  C        11.8586536260       14.0533843649        21.731367715838
  C        12.4561099893       12.8903594273        21.013211953938
  C        11.7045749785       12.1718221623        20.071120628438
  C        12.2809103690       11.1095964491        19.378772685938
  C        13.6213225045       10.7393986442        19.606867530038
  C        14.3542571739       11.4424573856        20.580902988238
  C        13.7813913998       12.5074217185        21.272437526138
  C        14.2609329135        9.6488440051        18.833410297938
  C        14.2562031666        9.6567958176        17.411705858438
  C        13.7428618412       10.7588225979        16.657774597238
  C        49.1265322019       21.2334213477        21.869560827338
  C        48.5497413229       22.4012523326        21.142441084738
  C        49.2997712903       23.0685592814        20.161425913238
  C        48.7328298078       24.1076554535        19.428201014538
  C        47.4022892194       24.5092971372        19.656834145638
  C        46.6713218385       23.8604076040        20.670322453638
  C        47.2337667805       22.8155127116        21.399691110238
  C        46.7721196053       25.5870137406        18.859549928038
  C        46.7611313455       25.5573636302        17.437793835438
  C        47.2608486980       24.4421504682        16.694333665538
  C        14.8603394567        8.5705930659        16.698400230938
  C        14.8919032735        8.5969619525        19.510010504538
  C        49.1130078787       21.2034890823       10.1453630709
  C        48.5276267335       22.3647390285       10.8725896403
  C        49.2668413521       23.0255045817       11.8654887696
  C        48.6904553065       24.0600131814       12.5969521629
  C        47.3600206611       24.4567249879       12.3587103661
  C        46.6395934257       23.8117072454       11.3352721841
  C        47.2131867700       22.7758277417       10.6034905622
  C        46.7216126662       25.5317377344       13.1496939760
  C        46.7333471839       25.5281203406       14.5713904286
  C        47.2485760964       24.4288174576       15.3277818502
  C        40.6342242083       17.1139988921       15.3238793340
  C        40.6535569620       17.1536769788       12.5149034280
  C        11.8828311269       14.0863966060       10.2854476449
  C        12.4720357765       12.9104450807       10.9894898833
  C        11.7146666480       12.1776497247       11.9160481887
  C        12.2811984504       11.0951898027       12.5845000743
  C        13.6198401450       10.7210213591       12.3522921510
  C        14.3575774192       11.4360361535       11.3908748636
  C        13.7921839793       12.5171818321       10.7181341181
  C        14.2535384389        9.6244023920       13.1227759107
  C        14.2522926732        9.6444265287       14.5446176962
  C        13.7422740489       10.7532831272       15.2917293603
  C        22.5120640162        3.2451912917        21.743824235938
  C        23.2254924230        4.3525676850        21.047153578438
  C        24.2254467185        4.0775574191        20.102632983938
  C        24.8495547478        5.1205629684        19.423102512638
  C        24.4891038997        6.4606921384        19.667596620638
  C        23.5179888783        6.7271929766        20.649864506238
  C        22.8895337618        5.6862394523        21.328009217038
  C        25.0879152423        7.5709309126        18.892115952438
  C        25.0584461391        7.5632962964        17.470673456638
  C        24.3623169181        6.5589603149        16.725713468238
  C        38.2986012634       31.9278693626        21.841379701438
  C        37.5585077150       30.8379504699        21.139522858538
  C        36.5914925799       31.1427954643        20.169057336638
  C        35.9632347745       30.1236052862        19.458138725938
  C        36.2867429946       28.7727621540        19.693714650838
  C        37.2231434012       28.4752999067        20.701968142738
  C        37.8550011069       29.4934604291        21.412578839438
  C        35.6792784852       27.6834657569        18.893749745138
  C        35.7168925174       27.7008464856        17.471709222538
  C        36.4265092911       28.7043431935        16.739106641838
  C        25.6727809296        8.6375011542        16.749971952238
  C        25.6790162384        8.6494539894        19.562281118438
  C        38.3307187927       31.9613465918       10.1598645464
  C        37.6139500940       30.8884587814       10.9091279403
  C        36.6801505474       31.1984438966       11.9099008098
  C        36.0702210702       30.1816372411       12.6426251743
  C        36.3793271034       28.8283524283       12.3988092608
  C        37.2941319144       28.5282259656       11.3707127391
  C        37.9058033136       29.5415471792       10.6390794850
  C        35.7648911808       27.7298061681       13.1804149840
  C        35.7606426968       27.7246943089       14.6029122845
  C        36.4460229166       28.7165240902       15.3726055943
  C        46.1354982956       26.6208654274       15.2814843765
  C        46.0877491973       26.5801190955       12.4735972442
  C        22.4607518366        3.2568007586       10.2594015623
  C        23.1526013292        4.3658999707       10.9843156314
  C        24.1506410869        4.0812493959       11.9301112012
  C        24.7757250577        5.1120631751       12.6281642601
  C        24.4236764068        6.4582173167       12.4033941801
  C        23.4490857716        6.7359172942       11.4258442014
  C        22.8191271098        5.7055035170       10.7285768217
  C        25.0505615111        7.5587886690       13.1783674655
  C        25.0394635998        7.5564278472       14.6014706933
  C        24.3507720033        6.5571529404       15.3590341127
  C        26.6176046918       17.8477895294        21.729112118538
  C        25.3197169867       17.9000003398        20.999143051738
  C        25.0439270065       18.9122909855        20.066704580938
  C        23.8236262117       18.9358668719        19.394767395538
  C        22.8443656207       17.9508560380        19.634487938338
  C        23.1166629225       16.9598506866        20.596047023638
  C        24.3375170539       16.9312454213        21.265967222438
  C        21.5683021106       17.9381196766        18.877369900638
  C        21.5705473377       17.9181674529        17.455698176538
  C        22.7774272492       17.7916054397        16.697916978938
  C        34.4405136051       17.1887205012        21.909752066038
  C        35.7323641344       17.1407153009        21.167445545138
  C        35.9299356714       16.1805925785        20.162460051338
  C        37.1100996173       16.1670310340        19.425233406738
  C        38.1249515164       17.1115631495        19.673550154238
  C        37.9303338370       18.0512459158        20.703897914838
  C        36.7470056103       18.0710559972        21.438257357538
  C        39.3788117201       17.1180592118        18.887411523938
  C        39.3752521028       17.1335987129        17.465646841338
  C        38.1693468111       17.2629071343        16.707410226538
  C        20.3246168443       17.9377670791        16.747567441438
  C        20.3450462541       17.9384703827        19.561496357038
  C        34.4772110838       17.2404115214       10.1862832715
  C        35.7763456697       17.1705373773       10.9114007034
  C        35.9865968406       16.1881485008       11.8905817349
  C        37.1730257819       16.1668357084       12.6173257439
  C        38.1760532399       17.1274274700       12.3842978319
  C        37.9712499767       18.0859056878       11.3745586503
  C        36.7828441670       18.1123189538       10.6501431323
  C        39.4226776332       17.1415484102       13.1792305497
  C        39.3978419727       17.1465564255       14.6001743584
  C        38.1798894304       17.2674583892       15.3408231798
  C        35.1240542305       26.6457665395       15.3021479059
  C        35.1807939099       26.6580852432       12.4927307558
  C        26.5715896909       17.8270915219       10.3254900806
  C        25.2571581703       17.8731907920       11.0305439711
  C        24.9922010206       18.8801943406       11.9711191220
  C        23.7736612392       18.9065360675       12.6435717223
  C        22.7911837065       17.9265563139       12.3979458886
  C        23.0510102976       16.9439995009       11.4255933059
  C        24.2704595610       16.9148944627       10.7520261539
  C        21.5264438342       17.9100073752       13.1686477009
  C        21.5487090991       17.9012279847       14.5898229051
  C        22.7664648432       17.7829672904       15.3320115676
  C        14.0456252696       17.8299212724       10.2867998765
  C        15.3509319677       17.8897257579       11.0092587144
  C        15.6086528773       18.8973401669       11.9515649378
  C        16.8183197584       18.9204054654       12.6427518859
  C        17.8029568507       17.9386092816       12.4127297620
  C        17.5503337209       16.9554218128       11.4377287958
  C        16.3401174765       16.9279073960       10.7482189301
  C        19.0710030818       17.9217949124       13.1819072403
  C        19.0675394171       17.9196751804       14.6041104062
  C        17.8595321020       17.8235561375       15.3643513153
  C        46.8058057058       17.2184603106       10.1591115954
  C        45.5176172207       17.1563714526       10.9061063907
  C        45.3127390667       16.1760099978       11.8892708015
  C        44.1328089437       16.1575269359       12.6278058449
  C        43.1287416020       17.1198882036       12.4052422072
  C        43.3309312881       18.0799740144       11.3953428517
  C        44.5112483277       18.1020490898       10.6573408112
  C        41.8767684757       17.1308295916       13.1945876147
  C        41.8816597674       17.1232284809       14.6163553319
  C        43.0903916350       17.2086324170       15.3763298809
  C        20.3132807916       17.9289203692       15.3132786405
  C        20.2954659563       17.9000057448       12.5006335413
  C        46.7853374997       17.2294535361        21.880848053738
  C        45.4815587988       17.1192263669        21.169060268438
  C        45.2635172989       16.1167963296        20.211828640838
  C        44.0754050591       16.0867209563        19.486271710938
  C        43.0767586329       17.0561025048        19.701494529238
  C        43.2844010078       18.0271060064        20.698813838138
  C        44.4735754686       18.0636094502        21.419428215638
  C        41.8322457436       17.0791924371        18.903038779838
  C        41.8590550944       17.0952407964        17.482338034338
  C        43.0796886010       17.1929361245        16.742764604838
  C        46.1532773973       26.6373189766        16.716029096238
  C        46.1622925210       26.6562051865        19.525665519338
  C        14.0438014605       17.8310171859        21.697716443238
  C        15.3634633940       17.9046770390        21.004093900038
  C        15.6357524101       18.9226850429        20.078094116838
  C        16.8633419403       18.9609489244        19.420711098138
  C        17.8458658034       17.9802051646        19.663788655538
  C        17.5800570532       16.9901000484        20.627092600138
  C        16.3545104280       16.9515716249        21.288107653538
  C        19.1126952801       17.9578909829        18.894201501838
  C        19.0894014887       17.9375919475        17.472492322038
  C        17.8700445836       17.8313406820        16.730543627038
  C        28.8071921837       14.0905955379       10.3958420112
  C        28.1901855400       12.9205219485       11.0831888981
  C        28.8994345198       12.2001162177       12.0557459562
  C        28.2963067982       11.1279251337       12.7079746557
  C        26.9694902947       10.7530650203       12.4133826927
  C        26.2830868499       11.4542905728       11.4056579248
  C        26.8838521181       12.5264016420       10.7512082567
  C        26.2955894370        9.6766568931       13.1745143527
  C        26.2729334339        9.7099257201       14.5956149972
  C        26.7611219064       10.8305570174       15.3399746896
  C        32.1810027801       21.2377074396       10.1443110382
  C        32.7769060796       22.4046425287       10.8627904432
  C        32.0264228539       23.0878435944       11.8322985124
  C        32.5959030891       24.1278224861       12.5608695011
  C        33.9327742215       24.5135110755       12.3426119625
  C        34.6663410529       23.8491476409       11.3414121187
  C        34.0987635381       22.8038625260       10.6142654639
  C        34.5589602045       25.5887352843       13.1470060415
  C        34.5388982160       25.5615378725       14.5690228164
  C        34.0240964779       24.4466263119       15.3031231280
  C        25.6685480142        8.6297246189       15.3151482642
  C        25.6663779799        8.6206431678       12.5018230038
  C        32.0978679280       21.1642452266        21.827099541738
  C        32.6604689450       22.3317349623        21.087699045438
  C        31.9214933169       23.0047294806        20.102285162238
  C        32.4933974782       24.0533363826        19.384166597838
  C        33.8192171914       24.4614761563        19.632398308838
  C        34.5388239318       23.8054704957        20.649591978338
  C        33.9719676295       22.7533184200        21.362672517938
  C        34.4593932227       25.5511465732        18.858199254238
  C        34.4855899473       25.5432603844        17.436069970038
  C        33.9973404355       24.4384995401        16.669543149138
  C        40.6223574911       17.1035017196        16.758034537438
  C        40.6015655331       17.1080693388        19.567546677738
  C        28.7196171591       14.0960713043        21.806519793038
  C        28.1012768489       12.9505070817        21.076626816338
  C        28.8268379110       12.2704110348        20.085944330138
  C        28.2454762539       11.2139878546        19.389916815338
  C        26.9216939640       10.8099314670        19.657067883538
  C        26.2137943847       11.4775407820        20.674609585938
  C        26.7935640670       12.5351832591        21.373466335738
  C        26.2814679767        9.7177476111        18.884766463538
  C        26.2677580221        9.7307606823        17.462316733138
  C        26.7563685841       10.8420694386        16.705916127238
  C        18.1355583516        3.1809993782       10.3172428801
  C        17.4063294113        4.2782718252       11.0159254120
  C        16.3902248311        3.9999601946       11.9430209434
  C        15.7425167454        5.0399779159       12.6064793412
  C        16.0948577581        6.3836346394       12.3671417272
  C        17.0847632360        6.6531160529       11.4039281961
  C        17.7338701173        5.6157403457       10.7389302646
  C        15.4703943429        7.4913109522       13.1301305633
  C        15.4857154907        7.4906781013       14.5518363455
  C        16.1874883644        6.4971835660       15.3049614502
  C        42.9458634711       31.8596328076       10.0728500669
  C        43.6462818230       30.7719066420       10.8167355175
  C        44.5918151232       31.0932417929       11.8027928471
  C        45.1975588381       30.0877043145       12.5504450862
  C        44.8711216969       28.7346391655       12.3356183830
  C        43.9453345491       28.4202653519       11.3223754781
  C        43.3365239811       29.4254107575       10.5743301002
  C        45.4886692593       27.6553393057       13.1388343127
  C        45.4929072023       27.6810383456       14.5605294855
  C        44.8060101828       28.6892205466       15.3071422853
  C        14.8565341306        8.5630554230       15.2641784295
  C        14.8749204552        8.5629318216       12.4515146779
  C        42.9464562968       31.9617564526        21.798746449938
  C        43.6917478032       30.8856071419        21.085312032638
  C        44.6563375063       31.1915613281        20.113027416138
  C        45.2778927518       30.1719993446        19.395287013338
  C        44.9541128645       28.8216754454        19.632868772838
  C        44.0206437697       28.5239576241        20.643648701138
  C        43.3923757343       29.5407011686        21.355854498538
  C        45.5631189098       27.7242672793        18.847605850738
  C        45.5334570788       27.7175708856        17.426306043938
  C        44.8273057711       28.7078983652        16.673324076238
  C        35.0995251367       26.6352982081        16.737349697438
  C        35.0685771437       26.6070994759        19.548380910838
  C        18.1487875677        3.2470079427        21.696382230838
  C        17.4302989738        4.3438675615        20.986950640238
  C        16.4148083601        4.0526543582        20.063685826438
  C        15.7665484179        5.0833218813        19.388296005538
  C        16.1215463945        6.4285006262        19.610760591638
  C        17.1133670600        6.7118217827        20.567558230838
  C        17.7610118003        5.6828787401        21.247317380938
  C        15.4909234856        7.5241837279        18.838374376738
  C        15.4967956662        7.5076037183        17.417243978538
  C        16.1937464132        6.5060184560        16.670565104738
  H        10.6725754601       12.4662343598        19.893796173238
  H        11.6946885941       10.5513906423        18.651967396338
  H        15.3910959451       11.1674099779        20.763060303038
  H        14.3506526567       13.0701854830        22.008378296938
  H        13.3756689017       11.6308823361        17.191058015838
  H        50.3224686180       22.7484985965        19.976693298938
  H        49.3192572407       24.6229108114        18.670574985138
  H        45.6418025235       24.1611187611        20.853435626838
  H        46.6626918829       22.2902210274        22.161705729938
  H        47.6291031908       23.5756609866        17.236033270938
  H        14.8722800522        8.5881316540        20.598317385338
  H        50.2868984792       22.7026922563       12.0603811237
  H        49.2687842891       24.5755121518       13.3604714559
  H        45.6101369706       24.1088159939       11.1462915744
  H        46.6523043963       22.2535647338        9.8320389940
  H        47.6070661902       23.5515641578       14.7969091363
  H        40.6597366665       17.1256395548       11.4269833990
  H        48.6870659052       14.0946726046        23.789826708638
  H        10.6813300760       12.4670151025       12.0937656777
  H        11.6894708691       10.5250875054       13.2974840900
  H        15.3928178930       11.1577086403       11.2045235432
  H        14.3643455074       13.0860945077        9.9891126232
  H        13.3752481261       11.6218273755       14.7531232663
  H        47.9301602737       14.2176577758        9.7106927199
  H        47.7799837774       14.3729712891        22.484954800938
  H        49.0831082935       18.5522612051       10.8672333685
  H        10.4159280250       14.1342626836        7.9986101860
  H        24.4910820231        3.0402933815        19.911012558238
  H        25.6249002988        4.9072675688        18.690458585438
  H        23.2325642820        7.7588098813        20.845017639138
  H        22.1173408952        5.8826668649        22.067731761038
  H        23.8059191128        5.7992194104        17.266806758138
  H        36.3569737269       32.1864632716        19.973215185438
  H        35.2144185148       30.3656050926        18.707085543638
  H        37.4818456211       27.4357589868        20.892672971038
  H        38.6034370633       29.2696916195        22.169165977738
  H        36.9870004879       29.4547235504        17.288960509938
  H        25.7174600930        8.6309072307        20.649969858338
  H        36.4516981381       32.2428146225       12.1102979620
  H        35.3393936798       30.4288789680       13.4094623525
  H        37.5466947057       27.4879911262       11.1760296031
  H        38.6328660753       29.3136592493        9.8633918291
  H        37.0225463745       29.4759634991       14.8521305193
  H        46.1091153621       26.5874555560       11.3855601850
  H        44.6684492802       35.1163352567        23.803736846238
  H        24.4277858608        3.0432767003       12.0999180629
  H        25.5534089217        4.8831816016       13.3536992662
  H        23.1654581307        7.7702724278       11.2423398684
  H        22.0510144204        5.9184447240        9.9886672416
  H        23.7847599291        5.7967495760       14.8288123196
  H        44.9544457656       34.3909837677        9.6955761491
  H        44.9021782346       34.2070178176        22.480381775338
  H        40.6667119952       33.2094439036       10.8532872083
  H        23.1503196174        1.9584081976        8.0058287411
  H        25.7888357723       19.6838842729        19.887260034538
  H        23.6127047535       19.7259584163        18.677315746338
  H        22.3721833451       16.1896288374        20.786886189638
  H        24.5596131642       16.1541854542        21.993612901738
  H        23.7178099515       17.6679393574        17.227261454838
  H        35.1420862699       15.4570211926        19.967148619038
  H        37.2616121027       15.4152984545        18.653734533938
  H        38.7064130274       18.7882824196        20.899645057738
  H        36.5808244806       18.8109177929        22.217827682938
  H        37.2297151487       17.3904743388        17.237225563638
  H        20.3520434201       17.9749738490        20.649478487538
  H        35.2011137808       15.4601827004       12.0790727511
  H        37.3359794270       15.4027375885       13.3741808140
  H        38.7400451770       18.8338811983       11.1921638631
  H        36.6026530210       18.8692021607        9.8905232616
  H        37.2483417636       17.3973864622       14.7974033738
  H        35.1634945355       26.6833306921       11.4047964193
  H        28.5098521677       21.0828219144        8.0076943266
  H        25.7533020122       19.6351506672       12.1554749085
  H        23.5671793496       19.6911440034       13.3682827153
  H        22.3008825866       16.1800437988       11.2316009860
  H        24.4878142880       16.1440059052       10.0166002407
  H        23.6981085401       17.6530927151       14.7894469155
  H        29.0221979102       21.7133383923        9.7499480851
  H        29.1163010906       21.7695663817        22.609730729138
  H        32.0706454234       18.5299269301       11.0011509367
  H        27.4049357776       19.0860016766        8.0833268762
  H        14.8503416206       19.6571236532       12.1270585750
  H        17.0154945512       19.7072765887       13.3676477038
  H        18.3009248383       16.1897842852       11.2523912997
  H        16.1318949108       16.1558942227       10.0112817380
  H        16.9172722101       17.7103802983       14.8360976392
  H        46.0951267245       15.4420988280       12.0674652315
  H        43.9735574958       15.3892808451       13.3812539744
  H        42.5631951043       18.8306613302       11.2197428129
  H        44.6840662822       18.8572227190        9.8941660767
  H        44.0331589179       17.3194706184       14.8482589244
  H        20.2901706600       17.9287762058       11.4124830503
  H        46.0411444517       15.3767311697        20.037331821838
  H        43.9084579110       15.3096960456        18.743486408538
  H        42.5172668920       18.7791408626        20.871025314138
  H        44.6563064738       18.8324870679        22.166052750738
  H        44.0143260047       17.2904139443        17.287394650338
  H        46.1991113595       26.6827440830        20.613111769038
  H        52.7408785557       21.0624963159        8.1946356271
  H        14.8754872806       19.6777335333        19.890538480038
  H        17.0738989926       19.7536467471        18.705994993238
  H        18.3298910369       16.2260143319        20.821600163738
  H        16.1337182209       16.1748102283        22.016211786738
  H        16.9358090135       17.7241359759        17.273529344438
  H        52.3215350507       21.6730772263        22.284523735338
  H        52.0126589046       21.7016849317        9.4955431019
  H        49.0665437574       18.6074954813        21.194198660138
  H        13.2470154211       19.0167444772        23.966556856238
  H        29.9196071419       12.4970992928       12.2884649703
  H        28.8481359612       10.5685934514       13.4602790359
  H        25.2580675927       11.1750826748       11.1705516578
  H        26.3504845045       13.0892414837        9.9892010612
  H        27.1149139366       11.7031362838       14.7992669175
  H        31.0001445903       22.7770870293       12.0117676806
  H        32.0077760765       24.6551524642       13.3087574988
  H        35.7013650305       24.1358945270       11.1667302751
  H        34.6722968706       22.2656800822        9.8630634648
  H        33.6751038625       23.5763389804       14.7546000216
  H        25.7031685718        8.5968819182       11.4141018240
  H        30.8980300586       22.6943946601        19.905725229738
  H        31.9126933979       24.5733617288        18.625388954338
  H        35.5645706838       24.1082717094        20.849599507138
  H        34.5351140651       22.2269806053        22.129547357138
  H        33.6280417880       23.5610572724        17.192721971138
  H        40.5939949070       17.0688074448        20.655135987238
  H        32.5061958211       14.1460708604        8.2495174306
  H        29.8462385312       12.5864350337        19.876831138638
  H        28.8172503769       10.6844516452        18.630985506238
  H        25.1897866016       11.1787780452        20.889317524238
  H        26.2419079515       13.0646696572        22.146693324738
  H        27.1047130297       11.7239285258        17.235774012138
  H        33.3054575114       14.2134528727        22.448473289238
  H        33.4101771260       14.3996888857        9.5985096534
  H        32.1316817427       18.4582802831        21.155055438838
  H        30.1825745800       14.1553567476        8.0760158142
  H        16.1178761858        2.9634766772       12.1291109243
  H        14.9527783558        4.8206958722       13.3218504246
  H        17.3676864193        7.6859385596       11.2112672405
  H        18.5164054013        5.8183157304       10.0115938429
  H        16.7542290902        5.7400086639       14.7714155038
  H        44.8281087067       32.1403259078       11.9769638779
  H        45.9374554862       30.3414957630       13.3063483102
  H        43.6826875453       27.3781851179       11.1522406298
  H        42.6000267131       29.1900633134        9.8095536291
  H        44.2308191333       29.4370996331       14.7688215358
  H        14.8511730945        8.5460971349       11.3632954341
  H        44.8999037974       32.2342483097        19.921626163738
  H        46.0248076510       30.4132863327        18.642076409938
  H        43.7637091280       27.4842158014        20.835188413838
  H        42.6459433634       29.3178857462        22.114358854638
  H        44.2689788716       29.4709337142        17.207883237638
  H        35.0224918431       26.6161542667        20.635820251338
  H        36.6054539751       35.1340196985        8.1805994159
  H        16.1434928047        3.0130976635        19.894215848738
  H        14.9740136281        4.8565666472        18.678416499838
  H        17.3973029759        7.7472350514        20.744062636238
  H        18.5442812477        5.8932644858        21.971678932138
  H        16.7653879016        5.7559453036        17.209021557638
  H        36.2794915782       34.4818672955        22.262954453238
  H        36.3819525344       34.2086210696        9.4992597644
  H        40.5796966304       33.2022960114        21.143526807638
  H        17.4711513613        1.9473550954        23.963901984138
  H        29.2444703285       19.3735798790       12.5933369559
  H        28.5411447667       18.7528768257        19.994436708138
  H        31.7732131701       15.7990563630        19.544266055338
  H        31.3981962610       15.5910692175       12.5160782382
  H        27.9472218108       17.8681354805       14.1617559555
  H        29.3927277037       15.4628198324       14.4150210571
  H        32.6583484867       17.0203078236        17.287988807938
  H        18.8534208426        0.8689759319       12.3351894604
  H        40.5282714158       35.2287458293        19.941777954038
  H        42.3249604445       34.4197235420        19.579751592638
  H        22.0874526189        0.6921795786       12.3514852301
  H        11.5968758582       18.7127589698       12.3823995144
  H        52.2646241714       18.4308432796        19.667107574138
  H        49.2554410426       16.4767351734        19.574091148538
  H        10.1494119751       15.7981660253       12.2932294416
  H        50.8495839888       17.6923141332        19.944082362638
  H        10.0456436497       17.3943578781       12.0520476736
  H        20.2147396064        0.0021608183       12.0419313063
  H        39.1840620422       36.1245490754        19.676312794838
 Ni        30.5227666370       17.5155270222        18.646643640838
 Ni        31.0311860752       16.3004874340       15.827183869838
 Ni        29.4663634024       17.9398690408        16.159994903638
 Ni        30.0551425218       17.3064383878       13.0779130993
  O        10.6499795018       14.3651354816        21.475602878838