     576
 i =      211, E =     -4780.0901510121
  C        11.8587749611       14.0535238573        21.731358310638
  C        12.4563248603       12.8906348180        21.013018372838
  C        11.7045324915       12.1713587528        20.071699897738
  C        12.2809610835       11.1091654032        19.379372913738
  C        13.6216856636       10.7397170395        19.606803798938
  C        14.3549974749       11.4436928521        20.579860970838
  C        13.7820546154       12.5086629696        21.271342399238
  C        14.2612221617        9.6490183417        18.833424279838
  C        14.2563529001        9.6568229409        17.411723942038
  C        13.7430700395       10.7589055712        16.657838404338
  C        49.1269289864       21.2331200551        21.869478311538
  C        48.5501954694       22.4011443271        21.142406606438
  C        49.3002273326       23.0684365052        20.161402176238
  C        48.7333134562       24.1076087023        19.428210232538
  C        47.4028093420       24.5093178141        19.656890662038
  C        46.6718656873       23.8604761914        20.670426963838
  C        47.2342974113       22.8155507209        21.399764989038
  C        46.7725351346       25.5870199399        18.859638005638
  C        46.7614134806       25.5573783176        17.437876540838
  C        47.2613332835       24.4422801564        16.694380024238
  C        14.8602732852        8.5704756664        16.698454421838
  C        14.8921911919        8.5971762826        19.510061919638
  C        49.1132419907       21.2033932579       10.1453436423
  C        48.5278510625       22.3647917428       10.8725518111
  C        49.2670818120       23.0254538024       11.8654954268
  C        48.6907759336       24.0600135603       12.5969912220
  C        47.3604017979       24.4568714816       12.3587154246
  C        46.6399932369       23.8120280885       11.3351533625
  C        47.2135250946       22.7761256566       10.6033433296
  C        46.7219616503       25.5318612569       13.1497370837
  C        46.7335924518       25.5281846364       14.5714446791
  C        47.2490388988       24.4289745671       15.3278274491
  C        40.6203982794       17.1353823060       15.3102645152
  C        40.6307891943       17.1412464116       12.5000400254
  C        11.8830199518       14.0865783031       10.2855234117
  C        12.4723607162       12.9108343721       10.9898252048
  C        11.7147057245       12.1773703114       11.9156145455
  C        12.2812901080       11.0949153516       12.5840393382
  C        13.6202298590       10.7214248056       12.3524885960
  C        14.3583823603       11.4373055668       11.3920567798
  C        13.7929496445       12.5184764283       10.7193587111
  C        14.2537720833        9.6245886487       13.1228664160
  C        14.2524232072        9.6444675660       14.5447114437
  C        13.7424814601       10.7533788795       15.2917942803
  C        22.5108983584        3.2452903762        21.739260646438
  C        23.2222492307        4.3494188037        21.032723302238
  C        24.2174359104        4.0667534344        20.085097524238
  C        24.8452677821        5.1037926901        19.399461486838
  C        24.4946001875        6.4472864548        19.640232094938
  C        23.5253737006        6.7213692017        20.622860285038
  C        22.8930100911        5.6861264287        21.307186682238
  C        25.1083684326        7.5524417849        18.867033622338
  C        25.0939407612        7.5459753658        17.444807538338
  C        24.3964895825        6.5491308991        16.691154208838
  C        38.3034571528       31.9291847740        21.838412879638
  C        37.5761307507       30.8381770621        21.127979937838
  C        36.6183910738       31.1394464275        20.147704997438
  C        36.0041186859       30.1173034567        19.429247931538
  C        36.3325312443       28.7687746033        19.669962748138
  C        37.2606446533       28.4749678680        20.686600781238
  C        37.8792515147       29.4958174942        21.403522936238
  C        35.7329013428       27.6752390130        18.872766808038
  C        35.7667306839       27.6889179401        17.451427778438
  C        36.4731966725       28.6910514342        16.714303290638
  C        25.7263679084        8.6145723085        16.730717661338
  C        25.7043090082        8.6251724621        19.543097708938
  C        38.3290264694       31.9621460845       10.1559364903
  C        37.6084227818       30.8876853935       10.8972741381
  C        36.6813068347       31.1941938066       11.9049642284
  C        36.0735862234       30.1739612500       12.6341722361
  C        36.3788289838       28.8220985582       12.3787862630
  C        37.2831043878       28.5255538160       11.3407120439
  C        37.8930338107       29.5422374118       10.6129859673
  C        35.7738994594       27.7211683374       13.1626930855
  C        35.7875841932       27.7125590115       14.5846083245
  C        36.4827033681       28.7026560394       15.3477481573
  C        46.1355876196       26.6208247085       15.2815849115
  C        46.0880599683       26.5802587284       12.4736875705
  C        22.4693007054        3.2585354516       10.2569967658
  C        23.1801381955        4.3660490949       10.9706585361
  C        24.1874315731        4.0762484992       11.9055386153
  C        24.8300811856        5.1033178004       12.5941187488
  C        24.4878355659        6.4528425774       12.3728214389
  C        23.5050898417        6.7358201662       11.4048557294
  C        22.8579381112        5.7089166194       10.7162184186
  C        25.1257195165        7.5478622144       13.1507074602
  C        25.1037042338        7.5429288715       14.5742588524
  C        24.3988512363        6.5489849074       15.3243706159
  C        26.6231531402       17.8637715744        21.772568447938
  C        25.3165910752       17.9067458673        21.046953674038
  C        25.0594879601       18.8987869770        20.087346653538
  C        23.8465112970       18.9183312517        19.401252169538
  C        22.8534700304       17.9495817509        19.652778849538
  C        23.1073952797       16.9799631636        20.641335478038
  C        24.3224603988       16.9544236436        21.324533775738
  C        21.5797242183       17.9348636170        18.888992899438
  C        21.5795651878       17.9115976923        17.466358116338
  C        22.7847955952       17.7845980452        16.705831599138
  C        34.4353223707       17.1963601819        21.907013274538
  C        35.7257286964       17.1531031790        21.158634698138
  C        35.9255429639       16.1994990342        20.148203081838
  C        37.1065806681       16.1920175272        19.411227210738
  C        38.1210897578       17.1359419179        19.664962134438
  C        37.9234120206       18.0698716238        20.700013957738
  C        36.7392416749       18.0837604440        21.433474460238
  C        39.3753455126       17.1484047499        18.878054449538
  C        39.3685372588       17.1665868637        17.456181670838
  C        38.1609743639       17.2971330309        16.700596221438
  C        20.3327562016       17.9308939545        16.758014603438
  C        20.3548770809       17.9389272435        19.571469343938
  C        34.4221767590       17.2164487165       10.2239266956
  C        35.7292831535       17.1372448454       10.9346445534
  C        35.9461623654       16.1720850387       11.9295207614
  C        37.1420026480       16.1566334631       12.6420362726
  C        38.1491399760       17.1064090701       12.3808928407
  C        37.9386366528       18.0437478348       11.3521025075
  C        36.7421325327       18.0636101099       10.6411811482
  C        39.4012068393       17.1344111069       13.1686817350
  C        39.3815466432       17.1594809196       14.5899398506
  C        38.1666107833       17.2917165435       15.3340311789
  C        35.1585743660       26.6325538515       15.2884310832
  C        35.1823002116       26.6514465624       12.4793868494
  C        26.5709125848       17.8276524331       10.3244852166
  C        25.2564879736       17.8742218944       11.0298170873
  C        24.9959764399       18.8745076825       11.9786949049
  C        23.7784616916       18.8999425182       12.6529040006
  C        22.7921791291       17.9249344201       12.4023466149
  C        23.0469919026       16.9501018788       11.4206827538
  C        24.2651495279       16.9225520338       10.7445396537
  C        21.5291144354       17.9057062781       13.1761615501
  C        21.5535532330       17.8953609330       14.5978440131
  C        22.7719016061       17.7768727300       15.3395352339
  C        14.0469946578       17.8289568357       10.2890975476
  C        15.3512623068       17.8863527359       11.0144822529
  C        15.6070683058       18.8886509278       11.9633984163
  C        16.8158936901       18.9096801892       12.6565981847
  C        17.8035467666       17.9312457822       12.4233882866
  C        17.5524685186       16.9533371358       11.4422536943
  C        16.3431175668       16.9276592450       10.7505954841
  C        19.0727371128       17.9142841904       13.1924336312
  C        19.0719576670       17.9113403660       14.6150312808
  C        17.8652152853       17.8131711766       15.3767562607
  C        46.8026326227       17.2179207664       10.1573754397
  C        45.5091310142       17.1541339574       10.8985840955
  C        45.2986834295       16.1743180345       11.8812193212
  C        44.1144537074       16.1556354790       12.6137595332
  C        43.1100482873       17.1167380778       12.3861046188
  C        43.3169890799       18.0750489669       11.3754920196
  C        44.5019878936       18.0977025168       10.6439820913
  C        41.8567663238       17.1312454559       13.1759163810
  C        41.8654587166       17.1396177512       14.5981645854
  C        43.0761694806       17.2335739942       15.3543440251
  C        20.3190075883       17.9216251130       15.3230525810
  C        20.2967905494       17.8949543056       12.5099521154
  C        46.7853012835       17.2330270457        21.876067077738
  C        45.4832736838       17.1321786369        21.156092700138
  C        45.2639112845       16.1383069472        20.190134400138
  C        44.0763188657       16.1161233164        19.462419756638
  C        43.0779218149       17.0849565357        19.682971669438
  C        43.2882655751       18.0492231665        20.686483884938
  C        44.4767377248       18.0777162452        21.409335726938
  C        41.8303255545       17.1118373265        18.887226678438
  C        41.8522653090       17.1285931913        17.465929348438
  C        43.0699238919       17.2257048010        16.721238204038
  C        46.1533697245       26.6372515002        16.716137607338
  C        46.1626532632       26.6561737524        19.525776372238
  C        14.0463073963       17.8320513605        21.698585963038
  C        15.3677942171       17.9070041369        21.008871030838
  C        15.6414063896       18.9219401735        20.079689480938
  C        16.8707657806       18.9594854399        19.425389350738
  C        17.8547465731       17.9812748707        19.674033235338
  C        17.5880936077       16.9956766820        20.641868984838
  C        16.3607743560       16.9575750541        21.299728786238
  C        19.1221706663       17.9560358019        18.904828525638
  C        19.0977908911       17.9314108246        17.483241062338
  C        17.8778283300       17.8220871129        16.742785957838
  C        28.8176454641       14.1429180443       10.4088454238
  C        28.2396435712       12.9557710916       11.1020471000
  C        28.9656931189       12.2271553424       12.0561216055
  C        28.3806429674       11.1356330457       12.6963284419
  C        27.0552007101       10.7476206610       12.4094386624
  C        26.3534696356       11.4572805711       11.4180014827
  C        26.9351702723       12.5463040655       10.7759349389
  C        26.3877658865        9.6584960419       13.1620528777
  C        26.3566529427        9.6859193798       14.5832342134
  C        26.8469547918       10.8010195599       15.3345218500
  C        32.1803201408       21.2358465194       10.1454032485
  C        32.7764018456       22.4018904062       10.8621556741
  C        32.0321489268       23.0763773930       11.8424443867
  C        32.6053834198       24.1147923280       12.5700233736
  C        33.9382230088       24.5064403156       12.3385499593
  C        34.6643829921       23.8509765909       11.3263255855
  C        34.0937508205       22.8072632147       10.6003672721
  C        34.5698751947       25.5802085213       13.1388179450
  C        34.5657058831       25.5494961335       14.5604217960
  C        34.0586789748       24.4334873510       15.2983291028
  C        25.7367720344        8.6089136329       15.2955199942
  C        25.7551857112        8.6075815673       12.4820535027
  C        32.1043096251       21.2216480282        21.867209078538
  C        32.6967074168       22.3698970251        21.119844981338
  C        31.9647840491       23.0314896186        20.121569084638
  C        32.5482100659       24.0605804467        19.385829150838
  C        33.8770602552       24.4591711120        19.631067785638
  C        34.5917054601       23.8108600103        20.656538843638
  C        34.0134851510       22.7758537951        21.386695452238
  C        34.5197955318       25.5403024496        18.848683691038
  C        34.5392225776       25.5295840982        17.426996528538
  C        34.0450596508       24.4245710008        16.664849298638
  C        40.6133574727       17.1344281470        16.744895341938
  C        40.6005434057       17.1379778861        19.554925334038
  C        28.7479580408       14.0668322851        21.808908540938
  C        28.1397060983       12.9185683614        21.071410591338
  C        28.8763781889       12.2229483206        20.100459607738
  C        28.2972385179       11.1652662594        19.402935768038
  C        26.9646203096       10.7767753367        19.649033818738
  C        26.2451561063       11.4601586658        20.647377150338
  C        26.8229397903       12.5178559617        21.347474797738
  C        26.3240860905        9.6875591334        18.871960130238
  C        26.3241819190        9.7015314206        17.449799306438
  C        26.8295284215       10.8097895292        16.700125811238
  C        18.1355707559        3.1811404905       10.3171544021
  C        17.4061996205        4.2783346828       11.0155906179
  C        16.3903949412        3.9999185631       11.9430280068
  C        15.7426348729        5.0398461016       12.6065467238
  C        16.0945549966        6.3836042882       12.3669884401
  C        17.0839852407        6.6531799540       11.4032712531
  C        17.7331541415        5.6158904401       10.7381989996
  C        15.4701860859        7.4912401804       13.1301018258
  C        15.4853784428        7.4904467005       14.5518249588
  C        16.1869151736        6.4968127269       15.3049893107
  C        42.9459624302       31.8596380930       10.0729457135
  C        43.6463879174       30.7719788938       10.8168774004
  C        44.5917755935       31.0933069196       11.8030848217
  C        45.1974955571       30.0877648144       12.5507503404
  C        44.8712396910       28.7346754163       12.3357715833
  C        43.9455899223       28.4203337035       11.3223894545
  C        43.3367653176       29.4254677833       10.5743466147
  C        45.4887994238       27.6553608014       13.1389637393
  C        45.4928913838       27.6809567089       14.5606608264
  C        44.8058117115       28.6889963584       15.3073022632
  C        14.8564204200        8.5629249587       15.2642265620
  C        14.8750113531        8.5630959029       12.4515353654
  C        42.9465401826       31.9617074967        21.798785276138
  C        43.6918468697       30.8855853216        21.085366320738
  C        44.6563231384       31.1914860820        20.112945140538
  C        45.2778698458       30.1718960210        19.395238897738
  C        44.9542697641       28.8215547730        19.633006383238
  C        44.0209623351       28.5239040967        20.643961938638
  C        43.3926778192       29.5406675740        21.356125261438
  C        45.5632619417       27.7241389455        18.847742348238
  C        45.5334401091       27.7174195164        17.426446319038
  C        44.8270970579       28.7076312056        16.673486968238
  C        35.1466652898       26.6214467334        16.723137674138
  C        35.1277285303       26.5997753404        19.532949216638
  C        18.1489308397        3.2471114145        21.696559216738
  C        17.4304332886        4.3439698391        20.987275064538
  C        16.4151447593        4.0527097793        20.063764616138
  C        15.7668501924        5.0833213110        19.388354923738
  C        16.1215846385        6.4285697069        19.610925064038
  C        17.1130835229        6.7119516776        20.568068913338
  C        17.7607586924        5.6830565138        21.247885938838
  C        15.4909543111        7.5242003786        18.838474555238
  C        15.4965927367        7.5074278205        17.417336026438
  C        16.1932437311        6.5056825876        16.670595789438
  H        10.6722822506       12.4651979856        19.894923855438
  H        11.6946010549       10.5504115090        18.653103669138
  H        15.3921969465       11.1695081084        20.761244607038
  H        14.3516863698       13.0722480770        22.006367839338
  H        13.3760723525       11.6310246102        17.191165571638
  H        50.3229230723       22.7483530223        19.976632363738
  H        49.3198291374       24.6228553437        18.670640302038
  H        45.6424097583       24.1613285683        20.853659027438
  H        46.6633334885       22.2903274656        22.161907812538
  H        47.6299501235       23.5759359136        17.236064698338
  H        14.8727655075        8.5885793596        20.598370716938
  H        50.2871195872       22.7025537512       12.0604043330
  H        49.2692145359       24.5754308301       13.3604891198
  H        45.6106283386       24.1093731994       11.1460455366
  H        46.6527350882       22.2540208769        9.8317170373
  H        47.6078781192       23.5518832523       14.7969216329
  H        40.6341608259       17.0992156275       11.4124829230
  H        48.6870266239       14.0951268424        23.789726260938
  H        10.6811359818       12.4662295986       12.0927729523
  H        11.6894101869       10.5242920300       13.2964836120
  H        15.3939618927       11.1597383534       11.2064564235
  H        14.3654770624       13.0881383510        9.9912073642
  H        13.3756630960       11.6219955477       14.7531504359
  H        47.9301421978       14.2186743075        9.7110061595
  H        47.7799850493       14.3737047129        22.484975254738
  H        49.0833806961       18.5521276738       10.8672530561
  H        10.4161035356       14.1343638750        7.9988402831
  H        24.4780718675        3.0276021594        19.896907543538
  H        25.6183148369        4.8826198549        18.666713595738
  H        23.2455738182        7.7549939535        20.815756488738
  H        22.1239377613        5.8902762285        22.048207491238
  H        23.8277829341        5.7937766995        17.225742834038
  H        36.3803370514       32.1821126147        19.950842622638
  H        35.2611163768       30.3544393622        18.670960178638
  H        37.5219864284       27.4365123519        20.879369065938
  H        38.6216959149       29.2770098611        22.167306563838
  H        37.0385507748       29.4405086080        17.260519504738
  H        25.7315134301        8.6065276369        20.631126856038
  H        36.4580519192       32.2379324207       12.1142835538
  H        35.3493048333       30.4169407410       13.4085153876
  H        37.5303947912       27.4858357992       11.1368340641
  H        38.6141173246       29.3185992203        9.8305913658
  H        37.0563781361       29.4606734627       14.8222309116
  H        46.1095994244       26.5877145039       11.3856537520
  H        44.6682795327       35.1161484525        23.803755325838
  H        24.4574755832        3.0364451323       12.0758553525
  H        25.6123653214        4.8676931329       13.3126068629
  H        23.2269251621        7.7718240001       11.2220248460
  H        22.0836652643        5.9287128512        9.9846367925
  H        23.8315693314        5.7940759638       14.7877543552
  H        44.9537615321       34.3904681252        9.6952726670
  H        44.9014954429       34.2068818455        22.480293648638
  H        40.6662077679       33.2095072753       10.8533269531
  H        23.1510907359        1.9581784230        8.0041377883
  H        25.8218162106       19.6506819191        19.895844745138
  H        23.6529838005       19.6938407293        18.663192595138
  H        22.3532094588       16.2223505244        20.844455404638
  H        24.5285913484       16.1915834646        22.071698918938
  H        23.7260295398       17.6619088791        17.233962592338
  H        35.1389107303       15.4758619762        19.948420815838
  H        37.2594179056       15.4445473754        18.635835640438
  H        38.6978656630       18.8073532011        20.900730735838
  H        36.5708480016       18.8197321171        22.216272343838
  H        37.2236463074       17.4302831454        17.233018226738
  H        20.3619238776       17.9803281645        20.659288728138
  H        35.1609343065       15.4501910539       12.1414893247
  H        37.3085612364       15.4053970585       13.4108612703
  H        38.7096741682       18.7828742758       11.1446793766
  H        36.5588340202       18.8052983640        9.8673798152
  H        37.2331485263       17.4204876033       14.7935701861
  H        35.1512227868       26.6796349972       11.3918410576
  H        28.4984988509       21.0797711521        23.883599275438
  H        25.7604581034       19.6238118062       12.1709577567
  H        23.5766954595       19.6796469189       13.3841816749
  H        22.2938250938       16.1906025167       11.2210628959
  H        24.4774789316       16.1579204624       10.0011524785
  H        23.7031791052       17.6485351692       14.7959236928
  H        29.0075655604       21.7228413242        9.7406691699
  H        29.1897901696       21.7250163072        22.566525840938
  H        32.0790468897       18.5838757387       10.9911629590
  H        27.4036096501       19.0711627563        8.0810904223
  H        14.8481256233       19.6470169945       12.1423539250
  H        17.0102558464       19.6933553476       13.3857212274
  H        18.3043957001       16.1900063841       11.2527906410
  H        16.1382206206       16.1592058649       10.0089977564
  H        16.9224359903       17.6978280925       14.8499237933
  H        46.0805215923       15.4410779801       12.0649176682
  H        43.9532394351       15.3886539593       13.3681408230
  H        42.5500195953       18.8253079144       11.1945758951
  H        44.6776764125       18.8527339712        9.8812587384
  H        44.0172013636       17.3423612562       14.8227447137
  H        20.2904472366       17.9256286665       11.4218398164
  H        46.0394419133       15.3969210867        20.011481710638
  H        43.9095191231       15.3439412870        18.714539051538
  H        42.5231253768       18.8021777507        20.863673103438
  H        44.6594707928       18.8412546460        22.161459775438
  H        44.0063452117       17.3274024139        17.262163074538
  H        46.1996631247       26.6827827289        20.613214516938
  H        52.7412829919       21.0626805078        8.1947015912
  H        14.8807368838       19.6752275100        19.886740641038
  H        17.0815869227       19.7495780863        18.707871955238
  H        18.3389244265       16.2340575986        20.842123346738
  H        16.1400922673       16.1834269396        22.030604023438
  H        16.9444838633       17.7136096382        17.287000685438
  H        52.3228575467       21.6733635377        22.283876305038
  H        52.0135168897       21.7022876744        9.4956869906
  H        49.0679875648       18.6077694043        21.193603127838
  H        13.2477293693       19.0160591429        23.967177620738
  H        29.9867626873       12.5258264057       12.2833220047
  H        28.9474337668       10.5712810908       13.4337234056
  H        25.3296114600       11.1708799844       11.1865784404
  H        26.3873260849       13.1122360283       10.0268462938
  H        27.2113393099       11.6720534063       14.7985222068
  H        31.0087320685       22.7606821525       12.0301833208
  H        32.0231349066       24.6368289959       13.3262014785
  H        35.6957930069       24.1443943682       11.1417782497
  H        34.6602417805       22.2758853575        9.8391103662
  H        33.7026322684       23.5651778306       14.7513827505
  H        25.7954180463        8.5887245590       11.3942741244
  H        30.9400007503       22.7221015296        19.929422192038
  H        31.9735482584       24.5746440346        18.618370048738
  H        35.6203060054       24.1073363048        20.851445294738
  H        34.5705666861       22.2533940475        22.160880580538
  H        33.6784369217       23.5492365166        17.193243091338
  H        40.5958960569       17.0956123910        20.642452218438
  H        32.5047256165       14.1569559336        8.2598693920
  H        29.9036326536       12.5251735200        19.909695234438
  H        28.8772080540       10.6226714723        18.659510037138
  H        25.2139235361       11.1746207213        20.844833915338
  H        26.2628540422       13.0610252169        22.104952216338
  H        27.1799555004       11.6869422763        17.236267955938
  H        33.3074766464       14.2303796596        22.454619853338
  H        33.4046875180       14.3856438826        9.6115171862
  H        32.0966272265       18.4924322405        21.146305355738
  H        30.2110922351       14.1934168636        8.0840019968
  H        16.1182894939        2.9634170539       12.1293496533
  H        14.9531331576        4.8204277680       13.3221375823
  H        17.3664655849        7.6860641868       11.2102559908
  H        18.5153168517        5.8186598127       10.0105158635
  H        16.7534620855        5.7394696582       14.7714837377
  H        44.8279714825       32.1403947038       11.9773583966
  H        45.9372927257       30.3415465165       13.3067527928
  H        43.6831026660       27.3782378591       11.1521115248
  H        42.6003325632       29.1901098221        9.8095120100
  H        44.2305134752       29.4368116518       14.7690061189
  H        14.8513919915        8.5464707984       11.3633060304
  H        44.8997920396       32.2341670148        19.921397954738
  H        46.0247018416       30.4131469676        18.641935597338
  H        43.7642397107       27.4841516129        20.835721446438
  H        42.6463740871       29.3178630945        22.114760566338
  H        44.2686514934       29.4705619697        17.208069701438
  H        35.0825975554       26.6134482050        20.620313080038
  H        36.6052022857       35.1341238984        8.1806288517
  H        16.1439406295        3.0131517785        19.894159306238
  H        14.9744373766        4.8564657868        18.678378811238
  H        17.3967100288        7.7474068188        20.744843556238
  H        18.5437236066        5.8935935594        21.972534641038
  H        16.7647532533        5.7554723147        17.208986618938
  H        36.2788736042       34.4825326663        22.262793503238
  H        36.3808913439       34.2092593478        9.4996819213
  H        40.5808317860       33.2033550708        21.143227892638
  H        17.4715734655        1.9478598452        23.964122325838
  H        29.0759417098       19.4086616894       12.5463684978
  H        29.7095864116       19.6493159600        19.568563485838
  H        31.7280728933       15.7972641908        19.516566999738
  H        31.0372591774       15.6565151034       12.5973796341
  H        28.1087511391       17.8872748996       14.8193387476
  H        29.3945582847       15.6832914632       14.9056330080
  H        31.4336135186       19.8563152025        17.503843939338
  H        32.9517423871       17.5903383251        17.457392503438
  H        28.3594922320       17.7895038499        18.112296207738
  H        32.2266227529       18.2775328303       14.7021921116
  H        18.8530238404        0.8689229446       12.3351890543
  H        40.5279081288       35.2287916924        19.941657497238
  H        42.3246488057       34.4190609678        19.580087580338
  H        22.0876672876        0.6920804956       12.3518997575
  H        11.5969521156       18.7127177879       12.3824329906
  H        52.2653076706       18.4312867731        19.667359498138
  H        49.2554461048       16.4767029550        19.574107810938
  H        10.1501446159       15.7982258519       12.2927176807
  H        50.8504561384       17.6924986402        19.943958455138
  H        10.0460922363       17.3946220629       12.0519117732
  H        20.2141341407        0.0021947587       12.0421179430
  H        39.1836728699       36.1245253570        19.676308380838
 Ni        31.0323480276       17.9094665455        18.905701395338
 Ni        31.2424541160       16.5645745128        16.155352342938