     571
 i =      170, E =     -4761.6822002436
  C        11.8587792783       14.0535745471        21.731415898738
  C        12.4563393217       12.8906297279        21.013097244938
  C        11.7046147124       12.1716236576        20.071528675938
  C        12.2809852609       11.1093928366        19.379202325638
  C        13.6216042471       10.7397085002        19.606838040538
  C        14.3548228806       11.4433917795        20.580179144038
  C        13.7819405595       12.5083993262        21.271656082938
  C        14.2611431951        9.6490358916        18.833440878638
  C        14.2564365391        9.6569390300        17.411737815538
  C        13.7432467147       10.7590649598        16.657848935438
  C        49.1266776161       21.2332206517        21.869580190638
  C        48.5498505595       22.4011068957        21.142427074038
  C        49.2999662869       23.0685352394        20.161574332738
  C        48.7330412778       24.1076466335        19.428330379638
  C        47.4024494951       24.5091722779        19.656823852938
  C        46.6713848081       23.8601564034        20.670159778538
  C        47.2338325028       22.8152746457        21.399557528438
  C        46.7722440834       25.5868876661        18.859536869638
  C        46.7613199351       25.5573398336        17.437771229438
  C        47.2612825837       24.4422588749        16.694278139238
  C        14.8603672634        8.5706022469        16.698462555138
  C        14.8919083562        8.5970716936        19.510080577738
  C        49.1131444646       21.2033416165       10.1453989725
  C        48.5278208955       22.3648008655       10.8724841127
  C        49.2671032988       23.0255545609       11.8653293981
  C        48.6908171640       24.0601439990       12.5967790156
  C        47.3603706879       24.4568455365       12.3586344141
  C        46.6398763391       23.8118700190       11.3352177685
  C        47.2133888458       22.7759197596       10.6034554301
  C        46.7219615333       25.5318618339       13.1496390892
  C        46.7336570329       25.5282179502       14.5713449881
  C        47.2490603248       24.4289868517       15.3277243061
  C        40.6194971946       17.0886479042       15.3061599205
  C        40.6252389985       17.0995918346       12.4966937864
  C        11.8830090150       14.0866489210       10.2855304084
  C        12.4723148412       12.9107762926       10.9897374382
  C        11.7147591721       12.1775535719       11.9157903283
  C        12.2813208524       11.0950968405       12.5842389099
  C        13.6201658634       10.7214230695       12.3524968319
  C        14.3581992884       11.4370264847       11.3917717040
  C        13.7927915147       12.5182005569       10.7190593307
  C        14.2537451256        9.6246225184       13.1228764767
  C        14.2525334201        9.6445919330       14.5447193018
  C        13.7426718078       10.7535397972       15.2918026032
  C        22.5086871047        3.2436680104        21.740101240238
  C        23.2166862622        4.3480743792        21.033070362238
  C        24.2122770407        4.0666309926        20.085945574538
  C        24.8358847099        5.1050287513        19.399249301338
  C        24.4789232551        6.4466902391        19.639406105838
  C        23.5095679772        6.7196811414        20.621718992838
  C        22.8817504330        5.6831593126        21.307218955038
  C        25.0870498317        7.5526426835        18.865382476138
  C        25.0707997631        7.5452958899        17.443731791438
  C        24.3750990379        6.5456910654        16.692138291938
  C        38.3039779721       31.9277635914        21.835990443838
  C        37.5783281272       30.8379701385        21.120805464138
  C        36.6186418164       31.1421361505        20.143034627638
  C        36.0029310091       30.1227929324        19.421490035038
  C        36.3313732128       28.7729695136        19.655540814538
  C        37.2629526093       28.4761964093        20.668474770938
  C        37.8827515618       29.4942900400        21.388909751738
  C        35.7265490433       27.6815558635        18.857808672038
  C        35.7514867206       27.6977193935        17.436039022738
  C        36.4532053193       28.7013000033        16.696604421838
  C        25.6994562191        8.6152762740        16.728833455438
  C        25.6793441402        8.6271715066        19.540977933338
  C        38.3264636550       31.9625755392       10.1533205578
  C        37.5984656472       30.8897101540       10.8890190525
  C        36.6666836190       31.1992407293       11.8915200961
  C        36.0512152226       30.1810208937       12.6166746611
  C        36.3538106579       28.8283157068       12.3629810445
  C        37.2620783048       28.5287378505       11.3293254259
  C        37.8793024310       29.5434790830       10.6049175584
  C        35.7452390415       27.7298041585       13.1473609951
  C        35.7609441829       27.7226613676       14.5692379100
  C        36.4575272339       28.7134814600       15.3301345051
  C        46.1356314336       26.6208499754       15.2814755003
  C        46.0880131784       26.5802178907       12.4735830365
  C        22.4645817187        3.2562908282       10.2555182326
  C        23.1672100961        4.3649599148       10.9716600459
  C        24.1770650793        4.0783756984       11.9041492963
  C        24.8123222724        5.1081684464       12.5944150057
  C        24.4580316286        6.4545962871       12.3756910944
  C        23.4720943846        6.7345674047       11.4106624933
  C        22.8326368517        5.7050357005       10.7203050075
  C        25.0897475639        7.5515011479       13.1523107189
  C        25.0731573915        7.5440817104       14.5750065885
  C        24.3742819816        6.5463494144       15.3255787604
  C        26.6388035118       17.8323099618        21.732524139538
  C        25.3249715726       17.8901864758        21.022936136338
  C        25.0697509574       18.8805793650        20.061452986838
  C        23.8501591486       18.9115805644        19.388427669338
  C        22.8501337655       17.9528322779        19.650679456538
  C        23.1007478530       16.9876585651        20.644452199038
  C        24.3208519574       16.9536297199        21.318266939138
  C        21.5761376112       17.9412230423        18.887923203438
  C        21.5770083696       17.9169700812        17.465091492838
  C        22.7823360451       17.7842966716        16.705774030038
  C        34.4416659219       17.1912484570        21.898998256638
  C        35.7370491860       17.1328418693        21.161524525238
  C        35.9412390140       16.1617959062        20.168825273438
  C        37.1217184077       16.1468454574        19.431503354938
  C        38.1305532281       17.1010704811        19.667434633838
  C        37.9301549126       18.0510508595        20.687103124238
  C        36.7465748193       18.0720506434        21.421171990038
  C        39.3823597720       17.1099235454        18.876882292838
  C        39.3720610510       17.1180728259        17.455022040038
  C        38.1617636939       17.2384996225        16.702431546438
  C        20.3312076241       17.9396200943        16.755205995638
  C        20.3505788003       17.9469538137        19.568982957638
  C        34.4389379852       17.2419576408       10.1825074071
  C        35.7359457272       17.1413188565       10.9111146311
  C        35.9270708993       16.1788596391       11.9136177569
  C        37.1181074375       16.1452051844       12.6348690986
  C        38.1452674329       17.0740182893       12.3760270799
  C        37.9577966421       18.0106929176       11.3417163586
  C        36.7674412204       18.0487494775       10.6223944975
  C        39.3958483496       17.0886172325       13.1666397860
  C        39.3787177093       17.1082749813       14.5882728854
  C        38.1651127991       17.2330782168       15.3358654281
  C        35.1338193590       26.6426600444       15.2744489107
  C        35.1526096811       26.6598700803       12.4652847726
  C        26.5774454605       17.8284982093       10.3217964136
  C        25.2643112840       17.8703086892       11.0331149344
  C        25.0043885992       18.8700783778       11.9827215114
  C        23.7860440242       18.8969449038       12.6560404039
  C        22.7979329682       17.9239742004       12.4038836239
  C        23.0534245926       16.9481535069       11.4234017410
  C        24.2723954729       16.9192110854       10.7483477946
  C        21.5326474674       17.9083672018       13.1746733478
  C        21.5544423675       17.8990364524       14.5962845610
  C        22.7711583316       17.7761791999       15.3396464332
  C        14.0476322976       17.8298948105       10.2880707532
  C        15.3532495972       17.8896169480       11.0114405836
  C        15.6106035832       18.8954854413       11.9561453967
  C        16.8202630441       18.9187974496       12.6479396560
  C        17.8071855522       17.9389266063       12.4176640830
  C        17.5548215619       16.9576647301       11.4402062285
  C        16.3446912697       16.9298934060       10.7498206450
  C        19.0760170345       17.9223792814       13.1876283523
  C        19.0731742432       17.9217134466       14.6103532949
  C        17.8653189379       17.8277232350       15.3709628766
  C        46.8015076818       17.2154381592       10.1557631476
  C        45.5063405301       17.1436512850       10.8933981586
  C        45.3004573122       16.1602899687       11.8736127540
  C        44.1155346388       16.1323056840       12.6045129030
  C        43.1050476193       17.0873732813       12.3782080590
  C        43.3069358538       18.0484841512       11.3689983386
  C        44.4929164566       18.0805197091       10.6389390753
  C        41.8524611343       17.0931953040       13.1697095328
  C        41.8634725079       17.0998118927       14.5920258385
  C        43.0751081827       17.2005327518       15.3456535736
  C        20.3192145562       17.9296822711       15.3201138993
  C        20.3010905552       17.8997764355       12.5067796072
  C        46.7861746218       17.2327372009        21.875404012238
  C        45.4865132463       17.1287702708        21.152883802938
  C        45.2735427970       16.1327276530        20.187602848938
  C        44.0877346243       16.1042726749        19.457704429838
  C        43.0849300409       17.0690935069        19.675391891238
  C        43.2896289384       18.0366072662        20.677031318938
  C        44.4764024359       18.0713024348        21.402324702738
  C        41.8368267155       17.0859407197        18.880967522638
  C        41.8558933440       17.0945875611        17.459589743838
  C        43.0716308321       17.1955996303        16.712519495238
  C        46.1533601053       26.6372546544        16.716025890738
  C        46.1623065558       26.6560043145        19.525672587938
  C        14.0454999826       17.8324764752        21.698377712138
  C        15.3662656122       17.9090616002        21.007457684338
  C        15.6379020057       18.9262372465        20.080160745338
  C        16.8664715286       18.9663869881        19.424571803638
  C        17.8511934824       17.9882787401        19.670066484538
  C        17.5863094954       16.9999636992        20.635654366138
  C        16.3598413541       16.9593892089        21.294875854838
  C        19.1186175069       17.9654689895        18.900974133738
  C        19.0954660848       17.9427587352        17.479232877838
  C        17.8761990184       17.8370345035        16.737114675038
  C        28.8018981945       14.1237886810       10.3982645950
  C        28.2020168015       12.9471461563       11.0917646220
  C        28.9297220066       12.2088021887       12.0365568141
  C        28.3393278236       11.1233066240       12.6801691908
  C        27.0070506047       10.7531948255       12.4050970422
  C        26.3010183699       11.4742087910       11.4253215616
  C        26.8891958895       12.5579871729       10.7790483843
  C        26.3416607864        9.6655321887       13.1598064128
  C        26.3200931843        9.6897503251       14.5807566378
  C        26.8184388938       10.8019437975       15.3309158880
  C        32.1801732408       21.2444617169       10.1052958379
  C        32.7663686182       22.4078096612       10.8351340889
  C        32.0141465385       23.0791297583       11.8114695731
  C        32.5810452734       24.1164858637       12.5467760247
  C        33.9146722037       24.5115832406       12.3251486713
  C        34.6493770894       23.8574293748       11.3181487488
  C        34.0860415084       22.8138878647       10.5864396691
  C        34.5411173374       25.5887673866       13.1259817631
  C        34.5392634770       25.5593569516       14.5475982694
  C        34.0364142178       24.4425629720       15.2867547870
  C        25.7052889750        8.6111593219       15.2943325617
  C        25.7096902841        8.6146096100       12.4813161198
  C        32.1156377397       21.1988971445        21.827623350738
  C        32.7029369011       22.3571747682        21.092514570838
  C        31.9729303667       23.0108159658        20.087694259638
  C        32.5498392489       24.0505448763        19.362522373238
  C        33.8724325686       24.4632893173        19.619252984138
  C        34.5844269468       23.8225576216        20.651445932138
  C        34.0107420358       22.7806748894        21.375643419238
  C        34.5118803731       25.5463354605        18.836979769338
  C        34.5250780887       25.5372780926        17.414806963038
  C        34.0298315866       24.4320454386        16.653389792038
  C        40.6154928794       17.0900321759        16.740971259038
  C        40.6085844223       17.1104511346        19.551186743638
  C        28.7380624657       14.0694360063        21.777605677738
  C        28.1244851620       12.9181870385        21.052549279338
  C        28.8624846674       12.2047115248        20.095297196938
  C        28.2781913723       11.1473053117        19.403197503338
  C        26.9399252259       10.7765794628        19.643074160238
  C        26.2196401419       11.4745134529        20.630460181638
  C        26.8024548954       12.5327773433        21.325067654838
  C        26.2972345517        9.6885699064        18.868142074938
  C        26.2984416172        9.7020144069        17.446446818038
  C        26.8065281893       10.8088170588        16.696529827838
  C        18.1353142331        3.1810251444       10.3171111311
  C        17.4059937736        4.2782326571       11.0156846805
  C        16.3904850824        3.9998416467       11.9434393628
  C        15.7427321097        5.0398065595       12.6069241003
  C        16.0944044509        6.3835656412       12.3670428955
  C        17.0834769714        6.6531071436       11.4029549518
  C        17.7326011790        5.6157850707       10.7379069755
  C        15.4701434821        7.4912578658       13.1301374076
  C        15.4854834027        7.4905627491       14.5518527666
  C        16.1870851694        6.4969755931       15.3050177456
  C        42.9458477932       31.8595107412       10.0729359434
  C        43.6463067439       30.7718746446       10.8167888479
  C        44.5917423221       31.0932355846       11.8029510828
  C        45.1974923583       30.0877061914       12.5505932363
  C        44.8711882493       28.7346169866       12.3356667697
  C        43.9454745477       28.4202450525       11.3223556111
  C        43.3366085079       29.4253652206       10.5743302307
  C        45.4887943084       27.6553380432       13.1388555019
  C        45.4929592736       27.6809912827       14.5605476951
  C        44.8058488950       28.6890181063       15.3071766797
  C        14.8565563871        8.5630671230       15.2642369432
  C        14.8748702267        8.5630540924       12.4515693424
  C        42.9465467073       31.9615602713        21.798771266138
  C        43.6917306547       30.8854659450        21.085296972638
  C        44.6562746145       31.1913643503        20.112932892338
  C        45.2777552625       30.1717683130        19.395196920138
  C        44.9540724253       28.8214320203        19.632906936938
  C        44.0206716161       28.5237879818        20.643777769038
  C        43.3924472402       29.5405534264        21.355980524038
  C        45.5630503308       27.7240333374        18.847625682738
  C        45.5333981141       27.7174098324        17.426326173238
  C        44.8270904786       28.7076418870        16.673362118638
  C        35.1279035717       26.6307188422        16.709393327038
  C        35.1237591530       26.6052179702        19.519077506138
  C        18.1485733793        3.2468694283        21.696421369138
  C        17.4300534132        4.3437182553        20.987097319238
  C        16.4148841836        4.0525031729        20.063460548838
  C        15.7666218189        5.0831701543        19.388079212938
  C        16.1212068791        6.4284151544        19.610905430638
  C        17.1125354734        6.7117301152        20.568242649438
  C        17.7601556748        5.6827904626        21.248015689738
  C        15.4907345062        7.5241399983        18.838475838838
  C        15.4965894685        7.5074935889        17.417340151438
  C        16.1933539356        6.5058070530        16.670622798038
  H        10.6724348483       12.4656513762        19.894625446538
  H        11.6946637991       10.5508337391        18.652747916838
  H        15.3919170113       11.1689420918        20.761769558838
  H        14.3514425236       13.0717481144        22.006968242838
  H        13.3762281538       11.6311736208        17.191183987238
  H        50.3227230621       22.7485772310        19.976963173538
  H        49.3195874625       24.6229994686        18.670859171338
  H        45.6418269449       24.1607993931        20.853175782838
  H        46.6627483547       22.2899026487        22.161510383038
  H        47.6297839586       23.5758652265        17.235964873238
  H        14.8722559826        8.5883404155        20.598388568938
  H        50.2871747624       22.7027359815       12.0601597241
  H        49.2692619337       24.5756533815       13.3602068733
  H        45.6104290465       24.1090291200       11.1462574502
  H        46.6524811035       22.2536489681        9.8320259596
  H        47.6078514389       23.5518777914       14.7968163061
  H        40.6270353532       17.0609626409       11.4090159183
  H        48.6870624030       14.0949991384        23.789791141638
  H        10.6812607865       12.4665869530       12.0931028495
  H        11.6894777671       10.5246385093       13.2968433954
  H        15.3936698449       11.1592184149       11.2059370969
  H        14.3651870761       13.0876675455        9.9906464873
  H        13.3758245700       11.6221442747       14.7531609735
  H        47.9301191853       14.2187291440        9.7108417353
  H        47.7800045224       14.3736175644        22.485051778138
  H        49.0825090133       18.5517040585       10.8670541133
  H        10.4159218199       14.1343839136        7.9988356407
  H        24.4758471575        3.0279442683        19.899385100138
  H        25.6095297234        4.8869521910        18.666228842938
  H        23.2263160912        7.7526897435        20.812665566538
  H        22.1120169806        5.8840709369        22.048344812638
  H        23.8104443797        5.7883381709        17.228116881338
  H        36.3791417118       32.1853662741        19.950988493738
  H        35.2577446843       30.3635020817        18.666467626738
  H        37.5254384796       27.4371469327        20.856552058638
  H        38.6266821264       29.2717712132        22.150237658538
  H        37.0199661634       29.4510762794        17.240978562438
  H        25.7064215032        8.6096044225        20.629005739538
  H        36.4464339502       32.2436991393       12.1003176941
  H        35.3239342595       30.4261285829       13.3875370496
  H        37.5069332823       27.4881790682       11.1268042786
  H        38.6035636408       29.3175770338        9.8261055806
  H        37.0287407715       29.4721194898       14.8029323599
  H        46.1094237685       26.5875796451       11.3855474081
  H        44.6682311107       35.1161327676        23.803753767638
  H        24.4543126604        3.0398337170       12.0703580492
  H        25.5976875623        4.8781401716       13.3113064698
  H        23.1864628486        7.7692597412       11.2321925202
  H        22.0554917706        5.9191823421        9.9902084101
  H        23.8085633232        5.7899082655       14.7894561339
  H        44.9536384729       34.3901621967        9.6950187515
  H        44.9016778533       34.2068177535        22.480377178538
  H        40.6653948761       33.2086316509       10.8527702957
  H        23.1504438273        1.9578112333        8.0041144465
  H        25.8395130548       19.6206702512        19.855654949938
  H        23.6580415234       19.6861963752        18.649093029838
  H        22.3405449993       16.2389206543        20.857827605538
  H        24.5238782744       16.1944274469        22.069971147538
  H        23.7219432552       17.6574737345        17.235563965038
  H        35.1564929946       15.4322261731        19.983374909838
  H        37.2780400784       15.3878728144        18.668077961138
  H        38.7010137483       18.7959618906        20.873557696038
  H        36.5746092167       18.8215242905        22.190262475138
  H        37.2244476426       17.3671438798        17.236302536538
  H        20.3562464190       17.9879479933        20.656827774638
  H        35.1257500219       15.4756659405       12.1283450509
  H        37.2639940433       15.3944994896       13.4083335184
  H        38.7431397034       18.7351091701       11.1361892782
  H        36.6032918916       18.7899182326        9.8439402399
  H        37.2294880490       17.3567426022       14.7982417094
  H        35.1217394027       26.6868615222       11.3776897124
  H        28.5053059418       21.0742318423        23.857362133338
  H        25.7696555326       19.6193123511       12.1731521941
  H        23.5841480473       19.6773912876       13.3865569853
  H        22.2994948741       16.1896375475       11.2227776683
  H        24.4843955221       16.1548604095       10.0045268917
  H        23.7021788233       17.6435372203       14.7967680461
  H        29.0094801585       21.7225173367        9.7283203020
  H        29.1816325610       21.7298055005        22.544712016738
  H        32.0940985162       18.6081307616       10.8932162325
  H        27.3991533090       19.0618570034        8.0164171288
  H        14.8520126129       19.6546544879       12.1331946961
  H        17.0155422525       19.7051593188       13.3739197054
  H        18.3061188604       16.1931631370       11.2529509796
  H        16.1387841090       16.1587666019       10.0112578909
  H        16.9227550987       17.7149951128       14.8431908824
  H        46.0867645180       15.4318531916       12.0571664930
  H        43.9587000877       15.3628748136       13.3573290672
  H        42.5352451532       18.7939152658       11.1881667680
  H        44.6640953931       18.8380671920        9.8776354214
  H        44.0144996304       17.3136935073       14.8121127073
  H        20.2961743080       17.9289549990       11.4186064164
  H        46.0524610850       15.3942265176        20.012060761738
  H        43.9251318965       15.3299555994        18.711132504138
  H        42.5208392755       18.7864964835        20.851365141038
  H        44.6546166894       18.8367016580        22.153665120638
  H        44.0084785958       17.3041322764        17.251366670338
  H        46.1991122056       26.6824878114        20.613121068538
  H        52.7411365119       21.0626317730        8.1946724404
  H        14.8763793087       19.6793834041        19.890098836838
  H        17.0760147448       19.7584894895        18.708899863738
  H        18.3379304303       16.2383726109        20.833015893238
  H        16.1404079070       16.1834764234        22.024282816538
  H        16.9417732205       17.7314490567        17.280049744538
  H        52.3223838691       21.6732755227        22.284155134138
  H        52.0132365003       21.7020672597        9.4956697099
  H        49.0677282373       18.6078553683        21.193827315438
  H        13.2474362812       19.0164677003        23.967010936238
  H        29.9557963827       12.4979372961       12.2526486705
  H        28.9062299465       10.5492885817       13.4099722210
  H        25.2712264573       11.2000039380       11.2057151521
  H        26.3414226564       13.1337719869       10.0371984944
  H        27.1855481301       11.6712323054       14.7938632867
  H        30.9888374593       22.7631308270       11.9887932294
  H        31.9925834009       24.6360224350       13.2999279830
  H        35.6816482002       24.1527354629       11.1415774125
  H        34.6593193432       22.2836637956        9.8294086494
  H        33.6797328419       23.5739748704       14.7406195969
  H        25.7444850853        8.5975131005       11.3933782882
  H        30.9566372714       22.6831891719        19.881276496438
  H        31.9759072204       24.5598818644        18.591484297738
  H        35.6083423255       24.1289216511        20.855506290738
  H        34.5662319659       22.2648451763        22.155415021038
  H        33.6694913467       23.5542699085        17.181992848638
  H        40.6062612937       17.0762661627        20.638985903038
  H        32.5148298105       14.1494702929        8.2405127773
  H        29.8963129474       12.4892990161        19.913632113038
  H        28.8571540449       10.5904791472        18.669592917638
  H        25.1844868005       11.1998255375        20.822703289638
  H        26.2429745822       13.0884695943        22.073921320638
  H        27.1630325368       11.6834286972        17.232718639538
  H        33.2973400341       14.1922476734        22.431892296638
  H        33.4041412445       14.3875727338        9.6088058206
  H        32.0832750349       18.5126743778        21.060768866538
  H        30.2307166106       14.1900027774        8.0770629240
  H        16.1185802747        2.9633266729       12.1300055859
  H        14.9534533943        4.8203879897       13.3227612668
  H        17.3656812377        7.6860058577       11.2096296035
  H        18.5143852788        5.8184925789       10.0098040130
  H        16.7536506739        5.7396449173       14.7715172727
  H        44.8279367549       32.1403251246       11.9772024402
  H        45.9373086541       30.3414815779       13.3065788123
  H        43.6829010242       27.3781583922       11.1521565158
  H        42.6000788921       29.1899660385        9.8096021231
  H        44.2304955740       29.4367869771       14.7688754584
  H        14.8510520839        8.5463131797       11.3633495537
  H        44.8997824842       32.2340393925        19.921409976738
  H        46.0246163207       30.4129775765        18.641910640838
  H        43.7638100225       27.4840531891        20.835448011338
  H        42.6460557468       29.3177364449        22.114525084938
  H        44.2685505111       29.4705175343        17.207927034938
  H        35.0839961425       26.6174289651        20.606685640438
  H        36.6050056870       35.1339939066        8.1807055986
  H        16.1437965152        3.0129412060        19.893654892138
  H        14.9743067115        4.8563644499        18.677970939638
  H        17.3959681502        7.7471966763        20.745259396338
  H        18.5429404414        5.8932318138        21.972879214938
  H        16.7648208377        5.7555752133        17.209035848638
  H        36.2783144451       34.4823983709        22.262901901138
  H        36.3806079938       34.2093865610        9.4998588930
  H        40.5805071585       33.2025402683        21.143125395938
  H        17.4708875345        1.9472322434        23.963892335738
  H        29.1814702050       19.5414207619       12.4671390728
  H        29.2953668279       19.3569434624        19.462735609638
  H        30.4947888843       15.6804043074        19.760627259938
  H        30.9823412095       15.6061386601       12.3630831188
  H        27.9217217935       17.8563871561       14.3667197540
  H        29.1964390403       15.6848453603       14.5682060787
  H        31.3373129379       19.5639400139        17.220214415338
  H        32.3021661385       16.2065290209        17.743724860338
  H        32.9232668916       17.9382269622       14.3048788051
  H        18.8531885079        0.8688260347       12.3353351232
  H        40.5277294744       35.2289807211        19.941876392738
  H        42.3241637478       34.4192342753        19.580166132538
  H        22.0876174777        0.6921329342       12.3516236092
  H        11.5970321603       18.7127032706       12.3823757346
  H        52.2650966128       18.4310310519        19.667523991238
  H        49.2548470082       16.4771240382        19.574545206838
  H        10.1501668310       15.7982606394       12.2928729032
  H        50.8501000320       17.6924691089        19.943984708338
  H        10.0460138217       17.3946040035       12.0519821634
  H        20.2143307875        0.0020431291       12.0420416990
  H        39.1832039630       36.1240468280        19.676280142338
 Ni        30.8219979151       17.7905877577        18.658349321338
 Ni        31.1109698012       16.6452072375       15.656572909438
 Ni        29.7161033391       18.5760552626       15.823810681738