     573
 i =      214, E =     -4762.8239284917
  C        11.8587399966       14.0534846247        21.731353049238
  C        12.4561328807       12.8904650659        21.013188327538
  C        11.7043838927       12.1715829916        20.071517533738
  C        12.2806836719       11.1093476272        19.379168484538
  C        13.6212383443       10.7394439428        19.606894156238
  C        14.3544496536       11.4429652828        20.580368854838
  C        13.7816492169       12.5079852136        21.271889481938
  C        14.2607008075        9.6487622424        18.833463015738
  C        14.2558728883        9.6566294641        17.411757178338
  C        13.7427694113       10.7587741459        16.657841924138
  C        49.1268380049       21.2332643996        21.869445866538
  C        48.5500756072       22.4012778945        21.142459658238
  C        49.3000433550       23.0684823178        20.161340986438
  C        48.7331071605       24.1076149438        19.428131747238
  C        47.4026269454       24.5093662426        19.656893079638
  C        46.6717564765       23.8606283427        20.670551535038
  C        47.2342045710       22.8157193513        21.399896629538
  C        46.7723121475       25.5870079303        18.859610305238
  C        46.7611435462       25.5572985223        17.437853491038
  C        47.2610021560       24.4421526296        16.694386002538
  C        14.8598189216        8.5703029928        16.698477997038
  C        14.8915347053        8.5968369128        19.510100558138
  C        49.1130610704       21.2034129113       10.1452950943
  C        48.5276186125       22.3647434411       10.8725085102
  C        49.2667458456       23.0253076189       11.8655910322
  C        48.6903967930       24.0598383266       12.5970748224
  C        47.3600490525       24.4567319627       12.3586959260
  C        46.6397551454       23.8120045462       11.3349714723
  C        47.2133330856       22.7761250738       10.6031666806
  C        46.7215574771       25.5316785817       13.1497143299
  C        46.7332196510       25.5280089545       14.5714212303
  C        47.2486554707       24.4288138482       15.3278331994
  C        40.6305587247       17.1162793438       15.3276615910
  C        40.6586986915       17.1549404751       12.5186193707
  C        11.8830418734       14.0864620968       10.2853913170
  C        12.4722562785       12.9106105849       10.9895611977
  C        11.7147511342       12.1776189398       11.9158604948
  C        12.2812678294       11.0951706380       12.5843332693
  C        13.6200116060       10.7212032209       12.3523949057
  C        14.3579354506       11.4365096215       11.3913482443
  C        13.7925756989       12.5176665750       10.7185757897
  C        14.2535446117        9.6244481736       13.1228556566
  C        14.2521176069        9.6443397012       14.5447038914
  C        13.7422380082       10.7532747679       15.2917945307
  C        22.5135265731        3.2445686330        21.744016590538
  C        23.2318789400        4.3489697086        21.047390726838
  C        24.2313543596        4.0671775719        20.104260099538
  C        24.8619757279        5.1054736376        19.423801493838
  C        24.5089568947        6.4479433922        19.666018431838
  C        23.5381641996        6.7212944970        20.646816664338
  C        22.9029081030        5.6847706494        21.325883181938
  C        25.1167848122        7.5526211814        18.889374545838
  C        25.0883119560        7.5433224865        17.467993609938
  C        24.3826532552        6.5444806980        16.724644739738
  C        38.2986682562       31.9283538354        21.841658253238
  C        37.5576959666       30.8400495020        21.139299005438
  C        36.5891027178       31.1483677363        20.171601167038
  C        35.9580994509       30.1315821090        19.460201879738
  C        36.2807099939       28.7801481539        19.692831302238
  C        37.2193444467       28.4790404519        20.697831319638
  C        37.8539829267       29.4949495117        21.409027215538
  C        35.6668197969       27.6943579326        18.893987194838
  C        35.6964618043       27.7146583502        17.472129691338
  C        36.4098453628       28.7147410817        16.738628348638
  C        25.7125961359        8.6109323543        16.745732026938
  C        25.7154051546        8.6279626462        19.557809333838
  C        38.3297444975       31.9616447414       10.1597695985
  C        37.6091433416       30.8910906540       10.9091450651
  C        36.6760370136       31.2060399831       11.9091750556
  C        36.0602177934       30.1929293654       12.6419776029
  C        36.3622819831       28.8378745606       12.3991363046
  C        37.2767830459       28.5327675809       11.3721505964
  C        37.8945120710       29.5426074006       10.6403525132
  C        35.7403758396       27.7435318766       13.1812029358
  C        35.7343906551       27.7395981553       14.6037703886
  C        36.4271183739       28.7271842819       15.3722421303
  C        46.1352124430       26.6206543917       15.2815506164
  C        46.0876848477       26.5800916940       12.4736665616
  C        22.4603091624        3.2551080506       10.2583801775
  C        23.1535161541        4.3618689794       10.9836379726
  C        24.1530289445        4.0725926669       11.9262588368
  C        24.7812529357        5.1005082958       12.6248544761
  C        24.4301719120        6.4471647619       12.4030723489
  C        23.4533840479        6.7296062959       11.4293810963
  C        22.8203303359        5.7019493876       10.7313297094
  C        25.0638870319        7.5434373829       13.1765306343
  C        25.0617822623        7.5377279309       14.5992857965
  C        24.3680836357        6.5428723390       15.3581048360
  C        26.6063251372       17.8388838419        21.772691647938
  C        25.3067965206       17.9273414477        21.041170940138
  C        25.0661030082       18.9387091340        20.098102059038
  C        23.8527458598       18.9874749851        19.412792445238
  C        22.8467387517       18.0282153973        19.647890074538
  C        23.0843273067       17.0407785116        20.622745004638
  C        24.2967063735       16.9876187175        21.306200184738
  C        21.5750076421       18.0282932845        18.882206109338
  C        21.5749628836       18.0119392107        17.459599376938
  C        22.7811779637       17.9008866874        16.697966860138
  C        34.4161759728       17.2182074553        21.902502414138
  C        35.7045373676       17.1539443962        21.153497465338
  C        35.8977294019       16.1938047538        20.148188741638
  C        37.0821969296       16.1697385116        19.416338362538
  C        38.1055555477       17.1044129629        19.669208401338
  C        37.9134965116       18.0450642849        20.699399563838
  C        36.7275522290       18.0742949277        21.428719997938
  C        39.3635325620       17.1066094861        18.887877492238
  C        39.3648871246       17.1276375730        17.466070898238
  C        38.1616074845       17.2578766255        16.703588908738
  C        20.3269637513       18.0170864259        16.753029368738
  C        20.3508274550       18.0182286104        19.565927476138
  C        34.4770273289       17.2407805282       10.1856705111
  C        35.7824013663       17.1615567725       10.9022526075
  C        35.9908254277       16.1824469814       11.8852070768
  C        37.1766641116       16.1623806397       12.6134640335
  C        38.1814316566       17.1209926664       12.3788806771
  C        37.9796748625       18.0739088595       11.3629388348
  C        36.7919511377       18.0990393226       10.6370172029
  C        39.4254086253       17.1394451646       13.1785005097
  C        39.3965153579       17.1453180962       14.5995772558
  C        38.1765060860       17.2639150219       15.3371198073
  C        35.0893672074       26.6659238037       15.3039714618
  C        35.1516294889       26.6739354802       12.4946268681
  C        26.5613238491       17.8314418930       10.3280850128
  C        25.2440097163       17.8933872736       11.0236262910
  C        24.9670752139       18.9311502163       11.9265112232
  C        23.7499335687       18.9669603075       12.6003541832
  C        22.7805975183       17.9659037481       12.3934528048
  C        23.0492271500       16.9540388750       11.4540601573
  C        24.2673694824       16.9157576547       10.7785158975
  C        21.5192969065       17.9580069511       13.1702860156
  C        21.5461552894       17.9744869339       14.5915495262
  C        22.7673635449       17.8832981989       15.3318195974
  C        14.0449478031       17.8304482480       10.2877687607
  C        15.3477074437       17.8933644792       11.0129935135
  C        15.6007916539       18.9067737352       11.9505482929
  C        16.8085152691       18.9367207378       12.6441657429
  C        17.7960604696       17.9560164845       12.4219953909
  C        17.5473165110       16.9656405964       11.4531707889
  C        16.3390143193       16.9314986941       10.7604579653
  C        19.0646937546       17.9528976974       13.1898124748
  C        19.0648941534       17.9687425473       14.6119357033
  C        17.8591317452       17.8689220629       15.3749288079
  C        46.8068901517       17.2200066807       10.1606676676
  C        45.5203308504       17.1614129468       10.9119210483
  C        45.3185339893       16.1861235105       11.9006688883
  C        44.1399131927       16.1697004472       12.6415555207
  C        43.1336005963       17.1287462304       12.4150819373
  C        43.3335867352       18.0850811733       11.4011434883
  C        44.5128911104       18.1053904377       10.6613255659
  C        41.8799105288       17.1378250661       13.2022119188
  C        41.8802270376       17.1310229244       14.6240990655
  C        43.0861021319       17.2214390357       15.3879572865
  C        20.3122707431       17.9975119860       15.3183499714
  C        20.2872787507       17.9281352987       12.5056508572
  C        46.7825042820       17.2288923395        21.881519773238
  C        45.4752094165       17.1163735381        21.172901751438
  C        45.2561994833       16.1161686112        20.213403002438
  C        44.0656937830       16.0845270442        19.491045444038
  C        43.0637401792       17.0496941984        19.711206830538
  C        43.2719515333       18.0176237964        20.711589944938
  C        44.4639050958       18.0559865765        21.428601938038
  C        41.8186462090       17.0728901097        18.911152308238
  C        41.8489138665       17.0963415180        17.490178642138
  C        43.0711880247       17.2025120970        16.754294256438
  C        46.1530440052       26.6371298719        16.716102325138
  C        46.1625067913       26.6562031891        19.525744999938
  C        14.0461801295       17.8359302421        21.699808205938
  C        15.3674390551       17.9241595015        21.011119407838
  C        15.6306857898       18.9499501299        20.090626356938
  C        16.8581622608       19.0046335206        19.434416295438
  C        17.8509230870       18.0329412558        19.672349996138
  C        17.5944323014       17.0357473437        20.631185838438
  C        16.3686825131       16.9806104672        21.291451620038
  C        19.1175155742       18.0268193552        18.901120784738
  C        19.0924636492       18.0059758957        17.479484023638
  C        17.8725624946       17.8857049154        16.740786684238
  C        28.8061141225       14.0814870743       10.3954264575
  C        28.1974138214       12.9023196072       11.0729614371
  C        28.9246692113       12.1567982150       12.0126652266
  C        28.3266126357       11.0826498551       12.6657472278
  C        26.9875901915       10.7301718017       12.4028186023
  C        26.2831092480       11.4530551311       11.4233328053
  C        26.8787734718       12.5278582716       10.7685855045
  C        26.3198209002        9.6532111095       13.1684271687
  C        26.3141476198        9.6801791427       14.5896592698
  C        26.8238150292       10.7919712902       15.3328415122
  C        32.1740232217       21.2437573669       10.1497893348
  C        32.7605097165       22.4171571075       10.8643761870
  C        32.0012719429       23.1002256172       11.8273958036
  C        32.5627552225       24.1445959530       12.5557708392
  C        33.8999708851       24.5331705064       12.3445293046
  C        34.6417355293       23.8687532436       11.3493047038
  C        34.0821271458       22.8200806585       10.6212602491
  C        34.5215634259       25.6098822442       13.1497794505
  C        34.4949576505       25.5859437216       14.5718209500
  C        33.9647178359       24.4790869725       15.3076880836
  C        25.7039299904        8.6042451364       15.3110872818
  C        25.6780503985        8.6043283632       12.4977354634
  C        32.0842424576       21.2031738715        21.873903051438
  C        32.6519405753       22.3667606482        21.127598368438
  C        31.8951843982       23.0566800922        20.167533345438
  C        32.4644489086       24.0946594744        19.431399529438
  C        33.8032721915       24.4785411778        19.642322377538
  C        34.5427402109       23.8049565946        20.633420674238
  C        33.9795682598       22.7595547482        21.360051278038
  C        34.4374258852       25.5680411249        18.861889894438
  C        34.4488569689       25.5664681113        17.439841408838
  C        33.9399770681       24.4704022614        16.674242508938
  C        40.6142653322       17.1026613823        16.762046706138
  C        40.5851142163       17.0949541635        19.571604218938
  C        28.7479000211       14.0666345302        21.816205975838
  C        28.1396383614       12.9206362803        21.076773306638
  C        28.8784698426       12.2252538043        20.107303798438
  C        28.3004538860       11.1692233536        19.406671111538
  C        26.9676980012       10.7812635543        19.650940136738
  C        26.2458116516       11.4643897038        20.647703697738
  C        26.8218629131       12.5215058810        21.349510327138
  C        26.3282796133        9.6889416819        18.878371702938
  C        26.3193047473        9.6987192897        17.456273274238
  C        26.8235129190       10.8023939018        16.698842891438
  C        18.1354713503        3.1810746615       10.3171770288
  C        17.4062002854        4.2782636914       11.0158376256
  C        16.3902217907        3.9998543578       11.9430622573
  C        15.7424217914        5.0397906473       12.6065441766
  C        16.0945164702        6.3835148865       12.3671325234
  C        17.0841889349        6.6531021568       11.4036867341
  C        17.7333572601        5.6157969330       10.7386414688
  C        15.4700354790        7.4911423155       13.1301716232
  C        15.4851296125        7.4903508258       14.5518880061
  C        16.1866930139        6.4967310040       15.3050406771
  C        42.9457865029       31.8595517525       10.0728408792
  C        43.6461686747       30.7718204467       10.8167756387
  C        44.5914308160       31.0931500785       11.8030931712
  C        45.1971145058       30.0875905612       12.5507668648
  C        44.8708912266       28.7345102181       12.3357185964
  C        43.9453923305       28.4201791334       11.3221980985
  C        43.3365940779       29.4253262410       10.5741478127
  C        45.4884040415       27.6551871258       13.1389269613
  C        45.4925136638       27.6807873963       14.5606254782
  C        44.8054294814       28.6888246041       15.3072679654
  C        14.8560877584        8.5628023818       15.2642509776
  C        14.8748604682        8.5629598052       12.4515777276
  C        42.9464618267       31.9617181483        21.798820179838
  C        43.6917866172       30.8855423706        21.085418855838
  C        44.6560995804       31.1914712867        20.112855245638
  C        45.2776350200       30.1718834326        19.395131493338
  C        44.9541169993       28.8215463991        19.632984615738
  C        44.0209542107       28.5238821380        20.644063616838
  C        43.3926856971       29.5406387059        21.356254904438
  C        45.5630488254       27.7241145416        18.847697124338
  C        45.5331556873       27.7173321474        17.426400816938
  C        44.8267403655       28.7075005657        16.673452725138
  C        35.0679641664       26.6547365299        16.739265356338
  C        35.0573592300       26.6184714358        19.550164581438
  C        18.1486031205        3.2469869080        21.696369893038
  C        17.4299919991        4.3437486811        20.987064395838
  C        16.4145653927        4.0524299282        20.063739094738
  C        15.7661663376        5.0830261858        19.388394995538
  C        16.1209547496        6.4282666991        19.610906795338
  C        17.1126373441        6.7116965403        20.567830623338
  C        17.7604098553        5.6828225163        21.247564472338
  C        15.4903354820        7.5239147068        18.838481559838
  C        15.4960860791        7.5072152004        17.417346556338
  C        16.1928657407        6.5055306579        16.670645832038
  H        10.6722745737       12.4657671904        19.894494786838
  H        11.6943585569       10.5508887605        18.652641021438
  H        15.3914862840       11.1683572678        20.762068558538
  H        14.3512251322       13.0712049775        22.007243007438
  H        13.3758367833       11.6309323003        17.191155188238
  H        50.3227095397       22.7483562288        19.976508884938
  H        49.3195545322       24.6228103832        18.670477371338
  H        45.6423357662       24.1615494553        20.853866475738
  H        46.6632707641       22.2905403595        22.162092259638
  H        47.6296188556       23.5758146892        17.236078722138
  H        14.8720688141        8.5881684533        20.598412178838
  H        50.2867475425       22.7023622159       12.0605772663
  H        49.2687551654       24.5751947473       13.3606713555
  H        45.6104369018       24.1094383194       11.1457412897
  H        46.6526239548       22.2541293318        9.8314085076
  H        47.6074381146       23.5516869018       14.7969470589
  H        40.6690121678       17.1251674754       11.4307830580
  H        48.6871328140       14.0949999481        23.789853837338
  H        10.6813377149       12.4668285698       12.0933604080
  H        11.6894845570       10.5249119072       13.2971419129
  H        15.3933116686       11.1584883259       11.2053039394
  H        14.3649388273       13.0868267180        9.9898968842
  H        13.3755354529       11.6219592905       14.7531918441
  H        47.9302643244       14.2182588683        9.7108012101
  H        47.7800701831       14.3739192585        22.485080354938
  H        49.0844455389       18.5526863153       10.8674948465
  H        10.4162030634       14.1342882633        7.9985351482
  H        24.4913431781        3.0281661100        19.914509514838
  H        25.6367298962        4.8867027463        18.692146002338
  H        23.2583835184        7.7547666641        20.840411898138
  H        22.1310602999        5.8866818533        22.064556147438
  H        23.8209788715        5.7895809618        17.267065961238
  H        36.3554475967       32.1927461512        19.978749436638
  H        35.2074787068       30.3755525169        18.711605737638
  H        37.4768404240       27.4387102839        20.885782354638
  H        38.6039047536       29.2691544901        22.163539947038
  H        36.9763570730       29.4610809849        17.287820447938
  H        25.7501493250        8.6132624694        20.645672833038
  H        36.4526328719       32.2516327095       12.1087852755
  H        35.3300788176       30.4445642916       13.4080458358
  H        37.5242754664       27.4911909087       11.1780816238
  H        38.6209818714       29.3103735414        9.8653417237
  H        37.0077151645       29.4828392663       14.8508400107
  H        46.1092400106       26.5875666005       11.3856330062
  H        44.6683794764       35.1162527911        23.803753767238
  H        24.4285294995        3.0336393442       12.0924026892
  H        25.5605058226        4.8695945960       13.3480244086
  H        23.1711054342        7.7649622132       11.2495397030
  H        22.0505246381        5.9170048493        9.9938086498
  H        23.7944830993        5.7874370015       14.8289315022
  H        44.9541724487       34.3905730324        9.6952188256
  H        44.9020203276       34.2068730858        22.480459522638
  H        40.6663977339       33.2094530932       10.8532623074
  H        23.1504347993        1.9579580358        8.0056108588
  H        25.8385353925       19.6828521166        19.916530520138
  H        23.6708358820       19.7777946095        18.687621530238
  H        22.3191514218       16.2908305206        20.812452097438
  H        24.4908138079       16.2115719876        22.042614918738
  H        23.7249711581       17.7952347664        17.224966765538
  H        35.1047019195       15.4769965152        19.948768425938
  H        37.2304829945       15.4162602147        18.645877181838
  H        38.6945925783       18.7756560641        20.899340738738
  H        36.5645624965       18.8143602746        22.208752181338
  H        37.2204988074       17.3836040762        17.231065509238
  H        20.3587520074       18.0515946368        20.654005345938
  H        35.2032905181       15.4571171683       12.0760822232
  H        37.3377715610       15.4007021598       13.3731925796
  H        38.7499642785       18.8196278362       11.1774167075
  H        36.6135414012       18.8529064606        9.8738396243
  H        37.2469256885       17.3923885634       14.7901142592
  H        35.1378089013       26.6963934265       11.4065788235
  H        28.5072651128       21.0884926052        23.982323337338
  H        25.7171540102       19.7027940315       12.0832834633
  H        23.5358908725       19.7735130977       13.2983003746
  H        22.3076042655       16.1752059239       11.2888234369
  H        24.4919304526       16.1223583171       10.0696049337
  H        23.7004072767       17.7658626669       14.7885534788
  H        29.0098664244       21.7137338665        9.7658217417
  H        29.1371818818       21.7505941890        22.603936787038
  H        32.1172656871       18.5725766915       11.0346527216
  H        27.3632273736       19.0895230828        8.1032582908
  H        14.8406320617       19.6661580829       12.1193360218
  H        17.0028124157       19.7287271911       13.3642099432
  H        18.3001679002       16.2007251179       11.2741512510
  H        16.1344263073       16.1547595421       10.0274416219
  H        16.9168942320       17.7439385877       14.8493334829
  H        46.1021867976       15.4540248013       12.0808956376
  H        43.9831348082       15.4046398734       13.3987595021
  H        42.5646766433       18.8339756926       11.2230148798
  H        44.6837603416       18.8574561901        9.8946304632
  H        44.0298829907       17.3380104889       14.8628576090
  H        20.2793604007       17.9388595872       11.4172050345
  H        46.0353306715       15.3788547432        20.033744638138
  H        43.9002132164       15.3093588411        18.745957772538
  H        42.5034689146       18.7670871895        20.889170081538
  H        44.6458321936       18.8236010307        22.176804459938
  H        44.0035980378       17.3031747970        17.302152141638
  H        46.1995604142       26.6828692418        20.613178289138
  H        52.7411489113       21.0626823011        8.1945960060
  H        14.8629143826       19.6980830948        19.906238984838
  H        17.0605796221       19.8030504440        18.723703560338
  H        18.3522552143       16.2788232272        20.822792306838
  H        16.1562999969       16.1977814800        22.015651527438
  H        16.9404938914       17.7733873022        17.286397689638
  H        52.3222823829       21.6734503329        22.284396735938
  H        52.0133532220       21.7022807378        9.4955641972
  H        49.0669156550       18.6071021552        21.193754173038
  H        13.2475289935       19.0168264562        23.967297258638
  H        29.9555500295       12.4348243555       12.2194682206
  H        28.8909624183       10.5050163939       13.3945767614
  H        25.2487827961       11.1892750463       11.2125126282
  H        26.3317921837       13.1087475213       10.0300627535
  H        27.1884183820       11.6597395843       14.7913328177
  H        30.9747391923       22.7861626144       12.0007183813
  H        31.9678733639       24.6734089983       13.2972871471
  H        35.6767047359       24.1589861156       11.1801439957
  H        34.6609688523       22.2824354382        9.8736841162
  H        33.6002430433       23.6149706227       14.7597527230
  H        25.7032452532        8.5850990504       11.4096275149
  H        30.8576136675       22.7706218581        20.007702405538
  H        31.8701244992       24.6270451131        18.691884927538
  H        35.5790941822       24.0899004157        20.802738217538
  H        34.5567270210       22.2177771927        22.105568713938
  H        33.5566268519       23.5994133061        17.198705387738
  H        40.5743945699       17.0514504913        20.659059860838
  H        32.5118505186       14.1514166763        8.2751469504
  H        29.9071364693       12.5255142652        19.921517875738
  H        28.8814037802       10.6265487838        18.664093600638
  H        25.2144316270       11.1779362604        20.842935315238
  H        26.2606021778       13.0643274427        22.106353181538
  H        27.1865296702       11.6784448315        17.228538075038
  H        33.3053002622       14.2376922460        22.450326168338
  H        33.4103762699       14.4070842069        9.6122807090
  H        32.1469310531       18.5039695645        21.243860753238
  H        30.2299122270       14.1806801590        8.1242789296
  H        16.1180468651        2.9633480223       12.1292706037
  H        14.9527857253        4.8204018071       13.3219934583
  H        17.3668663708        7.6859623267       11.2108587647
  H        18.5156752322        5.8185144594       10.0111116340
  H        16.7533580200        5.7394751795       14.7715403753
  H        44.8275741704       32.1402454474       11.9774015190
  H        45.9368111331       30.3413865475       13.3068646522
  H        43.6829694797       27.3780786536       11.1518499934
  H        42.6003030138       29.1900029869        9.8091645780
  H        44.2301228633       29.4366295105       14.7689626335
  H        14.8513095320        8.5462945974       11.3633529780
  H        44.8994764818       32.2341658368        19.921253044738
  H        46.0243640370       30.4131562689        18.641732820338
  H        43.7642935324       27.4841288543        20.835894116638
  H        42.6464828227       29.3178599841        22.114998382938
  H        44.2683378366       29.4704618642        17.208038141538
  H        35.0211188877       26.6231727516        20.637972521438
  H        36.6053408994       35.1341886479        8.1806232141
  H        16.1433809854        3.0128536927        19.894193537438
  H        14.9736739311        4.8561803391        18.678497590038
  H        17.3963851047        7.7471464053        20.744450440238
  H        18.5435689816        5.8933485834        21.972000156538
  H        16.7643980783        5.7553651579        17.209087064138
  H        36.2790318148       34.4821892434        22.263065948538
  H        36.3815180317       34.2088670594        9.4992759531
  H        40.5795438427       33.2023140340        21.143570748838
  H        17.4711256685        1.9476533016        23.963862979638
  H        28.8267114207       19.1421734133       12.4391193103
  H        28.9361080861       18.5538845513        19.891946630138
  H        31.7026827049       15.7882818213        19.553575231538
  H        31.0621393006       15.5138381684       12.5394080589
  H        29.4064634023       15.9038065976       14.8973030519
  H        30.9650274273       20.3169500614        19.063713168338
  H        32.9655605468       17.7553154783        17.615430946538
  H        29.3446343548       16.4366114323        18.352020311738
  H        32.4849508316       18.9836508273       14.4669104898
  H        18.8540426224        0.8690737086       12.3353682763
  H        40.5281216530       35.2289250765        19.941802703738
  H        42.3244657788       34.4194078899        19.579849797238
  H        22.0874997340        0.6920815560       12.3515121963
  H        11.5966805529       18.7129171281       12.3824100472
  H        52.2648826632       18.4311482547        19.667088451838
  H        49.2560045642       16.4763815152        19.573606797338
  H        10.1504532204       15.7982469596       12.2927766190
  H        50.8500952218       17.6924154691        19.943934275638
  H        10.0462173966       17.3946327699       12.0519272981
  H        20.2155764691        0.0022623534       12.0418602977
  H        39.1838066482       36.1244974401        19.676278288238
 Ni        31.1596556766       17.9880499324        19.154976268238
 Ni        31.0719654562       16.9128257987        16.323582330438
 Ni        30.3523287727       19.0877708679       15.820465082438