     571
 i =      115, E =     -4761.6654143373
  C        11.8587799606       14.0535986375        21.731337698638
  C        12.4563564315       12.8907050283        21.012981891338
  C        11.7045709785       12.1715252716        20.071591604838
  C        12.2809848710       11.1093177438        19.379272514038
  C        13.6216837985       10.7398237899        19.606760325338
  C        14.3549996785       11.4437378561        20.579854271738
  C        13.7820739065       12.5087250298        21.271326785438
  C        14.2611927197        9.6490984142        18.833412390338
  C        14.2564204099        9.6569366277        17.411714266838
  C        13.7432565086       10.7590718000        16.657825607138
  C        49.1268705112       21.2331481063        21.869543340138
  C        48.5501101625       22.4011427849        21.142440044838
  C        49.3001583605       23.0684192443        20.161438664038
  C        48.7332561974       24.1075910576        19.428247561738
  C        47.4027382939       24.5092766893        19.656889640738
  C        46.6717743857       23.8604410170        20.670414589638
  C        47.2341942348       22.8155088213        21.399760212638
  C        46.7725039534       25.5869935283        18.859622676638
  C        46.7614375316       25.5573817435        17.437856406638
  C        47.2613511704       24.4422821195        16.694358531038
  C        14.8603208658        8.5705731553        16.698458436838
  C        14.8920169518        8.5971924442        19.510073290338
  C        49.1132304547       21.2033686754       10.1453448432
  C        48.5278439171       22.3647719763       10.8725505969
  C        49.2671061038       23.0254542639       11.8654531971
  C        48.6908166322       24.0600282327       12.5969334474
  C        47.3604321716       24.4568680670       12.3586786917
  C        46.6399761254       23.8119753648       11.3351808149
  C        47.2134923104       22.7760472569       10.6033831728
  C        46.7220100569       25.5318612237       13.1497143609
  C        46.7336707366       25.5282116260       14.5714237507
  C        47.2490790481       24.4289853252       15.3278056840
  C        40.6206853935       17.0862690771       15.3081568422
  C        40.6307130258       17.1015309035       12.4984731110
  C        11.8830426099       14.0866298458       10.2855128167
  C        12.4724290616       12.9108907385       10.9898403438
  C        11.7148255021       12.1774676361       11.9156997884
  C        12.2814403338       11.0950438581       12.5841483032
  C        13.6203358592       10.7214958151       12.3524862761
  C        14.3584410519       11.4373200359       11.3919872469
  C        13.7929739756       12.5184627126       10.7192707088
  C        14.2538945398        9.6246887747       13.1228737710
  C        14.2525766196        9.6445945696       14.5447141109
  C        13.7427084629       10.7535482040       15.2917812941
  C        22.5123192550        3.2445492729        21.741910025938
  C        23.2280387706        4.3482501532        21.040321690938
  C        24.2247676701        4.0647010425        20.094742794738
  C        24.8550024167        5.1015524818        19.411464556938
  C        24.5044905452        6.4448086672        19.653043862438
  C        23.5351327315        6.7198499444        20.635019596438
  C        22.9003485871        5.6847427937        21.316925852238
  C        25.1157762431        7.5491016877        18.877915126038
  C        25.0939868406        7.5415144218        17.456051317738
  C        24.3923923508        6.5437548024        16.707332837438
  C        38.3033364810       31.9304963239        21.838547368038
  C        37.5748812161       30.8413918301        21.127594793338
  C        36.6148992002       31.1458641760        20.150541631338
  C        35.9983759639       30.1259698779        19.431271915438
  C        36.3273624393       28.7769932795        19.667975286538
  C        37.2583062244       28.4799044756        20.680975505938
  C        37.8788182637       29.4985209865        21.399143455438
  C        35.7241173105       27.6858051163        18.871216688838
  C        35.7517911977       27.7016820495        17.449940389338
  C        36.4570147378       28.7039358899        16.711921722338
  C        25.7209693925        8.6105075161        16.737920862738
  C        25.7124175836        8.6234775349        19.550360429438
  C        38.3284750842       31.9624384151       10.1555111595
  C        37.6057433187       30.8892162718       10.8961776096
  C        36.6752266260       31.1981122578       11.9000340439
  C        36.0642534537       30.1796184885       12.6287241438
  C        36.3698722086       28.8271619162       12.3770528459
  C        37.2778033849       28.5281578349       11.3428762538
  C        37.8907852875       29.5431712134       10.6153319350
  C        35.7616934348       27.7285696132       13.1615248514
  C        35.7711497949       27.7234951531       14.5834245980
  C        36.4657548850       28.7147185900       15.3454367168
  C        46.1356747378       26.6208579222       15.2815619072
  C        46.0880883142       26.5802432121       12.4736661892
  C        22.4639559550        3.2567239073       10.2575014294
  C        23.1644818555        4.3647114429       10.9773019219
  C        24.1709991261        4.0767901575       11.9131260920
  C        24.8052364695        5.1053218230       12.6063505139
  C        24.4537588878        6.4526205894       12.3876039374
  C        23.4705311092        6.7338100235       11.4198721405
  C        22.8319094825        5.7055013272       10.7267319898
  C        25.0885147131        7.5489430775       13.1629721560
  C        25.0805171847        7.5410064784       14.5860834120
  C        24.3842679084        6.5444652435       15.3405991377
  C        26.6211075500       17.8603675043        21.770729450338
  C        25.3144230645       17.9071345090        21.048966399838
  C        25.0634328638       18.8920076165        20.080860470638
  C        23.8498790032       18.9140177167        19.396768264038
  C        22.8514960274       17.9530064304        19.656168386938
  C        23.0995152837       16.9905227921        20.653205833838
  C        24.3145252309       16.9637598495        21.336106936038
  C        21.5787546433       17.9380859852        18.891063968438
  C        21.5790561772       17.9121604519        17.468278145038
  C        22.7844387537       17.7791581146        16.708828740238
  C        34.4393048210       17.1946585606        21.904139031738
  C        35.7323360059       17.1393015167        21.162252486938
  C        35.9371302275       16.1659610977        20.171773446038
  C        37.1172281210       16.1501775225        19.433845628238
  C        38.1253787418       17.1059774125        19.666421439438
  C        37.9239944208       18.0589194664        20.683176473738
  C        36.7409467732       18.0805280585        21.418231031038
  C        39.3780359430       17.1122349811        18.876837836638
  C        39.3695317129       17.1169492014        17.454849867338
  C        38.1602327254       17.2341766689        16.699738609238
  C        20.3325757164       17.9342063886        16.759143570338
  C        20.3532532427       17.9446242095        19.572402160438
  C        34.4404473710       17.2380287406       10.1873029782
  C        35.7414610929       17.1358169268       10.9091117116
  C        35.9454920651       16.1566124126       11.8926706903
  C        37.1359778646       16.1248932544       12.6148597381
  C        38.1511405142       17.0714188510       12.3738567169
  C        37.9533275094       18.0231239207       11.3558369956
  C        36.7624646691       18.0597967345       10.6368547093
  C        39.4007345290       17.0871111224       13.1665863736
  C        39.3812191400       17.1044546003       14.5880449154
  C        38.1658502953       17.2266697497       15.3330625244
  C        35.1396883744       26.6454881205       15.2882207105
  C        35.1724985375       26.6570185350       12.4791753289
  C        26.5735900614       17.8282064570       10.3257570015
  C        25.2596131371       17.8709155455       11.0337939535
  C        24.9959121247       18.8732960528       11.9796677524
  C        23.7785062181       18.8973027157       12.6542811825
  C        22.7943491450       17.9194731334       12.4059183416
  C        23.0522902644       16.9422775426       11.4275162559
  C        24.2708685144       16.9156107853       10.7518429272
  C        21.5302986576       17.9017718743       13.1782404400
  C        21.5540808765       17.8929775311       14.5998499603
  C        22.7715510438       17.7708656394       15.3424643965
  C        14.0473873340       17.8291522856       10.2889804362
  C        15.3520308656       17.8868791831       11.0140729867
  C        15.6088637789       18.8905001774       11.9613614752
  C        16.8178841994       18.9119026143       12.6543253800
  C        17.8049248767       17.9323530277       12.4229127652
  C        17.5528614130       16.9531545150       11.4432532976
  C        16.3434111918       16.9272544187       10.7516317798
  C        19.0739400117       17.9150699248       13.1925563764
  C        19.0725463247       17.9146961699       14.6152510109
  C        17.8652405330       17.8204923498       15.3765578458
  C        46.8026328957       17.2161110190       10.1565571565
  C        45.5089806257       17.1458834255       10.8966394316
  C        45.3033605814       16.1614456242       11.8757554803
  C        44.1193098068       16.1337687003       12.6079512553
  C        43.1098548642       17.0902486728       12.3836117351
  C        43.3119651012       18.0534078434       11.3765045958
  C        44.4969976820       18.0849838438       10.6450847503
  C        41.8567517545       17.0944651733       13.1737804591
  C        41.8656950583       17.0985859296       14.5959811070
  C        43.0762832613       17.1982199042       15.3514665009
  C        20.3192148457       17.9232671903       15.3241626767
  C        20.2985317633       17.8923408267       12.5109341921
  C        46.7853724423       17.2323930878        21.876166445938
  C        45.4842907582       17.1280130712        21.155425832738
  C        45.2681315326       16.1293863765        20.193559627938
  C        44.0813570287       16.1009482400        19.465052716038
  C        43.0805131500       17.0683792304        19.680434690238
  C        43.2880650802       18.0382443940        20.679196683038
  C        44.4757746229       18.0727769149        21.403223711938
  C        41.8327612677       17.0859935330        18.884935098138
  C        41.8536435303       17.0930752034        17.463537256138
  C        43.0706598047       17.1928027443        16.718285338538
  C        46.1534437612       26.6372820698        16.716115339838
  C        46.1625914257       26.6561312275        19.525754385738
  C        14.0460704264       17.8325594955        21.698841241938
  C        15.3673971464       17.9090187871        21.009350911238
  C        15.6400986638       18.9254949960        20.081586210238
  C        16.8692703230       18.9648006862        19.427120273538
  C        17.8536685318       17.9867082178        19.674214492338
  C        17.5879106491       16.9994847173        20.640652939238
  C        16.3608291016       16.9596925235        21.298738238838
  C        19.1210237181       17.9624331708        18.905124559038
  C        19.0971613395       17.9378414321        17.483573052438
  C        17.8773590471       17.8308375183        16.742577499838
  C        28.7993305637       14.1184461843       10.3978572918
  C        28.2002211392       12.9396977615       11.0878879723
  C        28.9303326431       12.1986243757       12.0288373044
  C        28.3402645780       11.1149460051       12.6754298635
  C        27.0055643213       10.7484951185       12.4068655322
  C        26.2975833790       11.4707849558       11.4293702693
  C        26.8855135749       12.5531786514       10.7801547107
  C        26.3421803887        9.6621492081       13.1652035234
  C        26.3297727555        9.6854978912       14.5865083397
  C        26.8326903002       10.7971025709       15.3346877337
  C        32.1810012991       21.2398184585       10.1417325311
  C        32.7760212567       22.4040889185       10.8621007368
  C        32.0244295573       23.0860060875       11.8314834526
  C        32.5935359048       24.1259821319       12.5599338366
  C        33.9298256757       24.5118061296       12.3396289248
  C        34.6641700876       23.8485009873       11.3386122789
  C        34.0973694084       22.8030517833       10.6120266803
  C        34.5568336697       25.5884560515       13.1396525093
  C        34.5464959201       25.5619087171       14.5612767675
  C        34.0338631319       24.4491090049       15.3002748943
  C        25.7184846046        8.6067326928       15.3030115278
  C        25.7052505464        8.6124452379       12.4894645364
  C        32.1047925959       21.2293154203        21.868344191838
  C        32.6942647187       22.3826041591        21.127343816738
  C        31.9557964590       23.0525446522        20.139525821438
  C        32.5364382544       24.0814057224        19.401905060038
  C        33.8694741147       24.4720274572        19.635369353738
  C        34.5906960636       23.8174740242        20.652255138838
  C        34.0149731720       22.7821406409        21.384075800038
  C        34.5090347831       25.5526654716        18.849891881838
  C        34.5205319015       25.5443200084        17.428009842338
  C        34.0200149233       24.4414502871        16.666926821238
  C        40.6142820509       17.0881469044        16.742958750938
  C        40.6034079003       17.1131926943        19.553063059038
  C        28.7430601484       14.0700006075        21.803282581938
  C        28.1391366040       12.9214728227        21.066429372938
  C        28.8821748096       12.2151433924        20.108149551338
  C        28.3039926878       11.1565604453        19.411504948338
  C        26.9675134423       10.7769540181        19.648702367738
  C        26.2416653704       11.4704327151        20.635246590938
  C        26.8175818250       12.5301845151        21.332906040838
  C        26.3284594159        9.6849536029        18.874874889638
  C        26.3239649209        9.6972478901        17.452956374238
  C        26.8281171290       10.8042460686        16.700529493038
  C        18.1354612749        3.1811129309       10.3171554442
  C        17.4061082483        4.2783086970       11.0156436204
  C        16.3905555266        3.9999161149       11.9433539939
  C        15.7428407928        5.0398725859       12.6068720103
  C        16.0945474301        6.3836374570       12.3670457038
  C        17.0837058951        6.6531778448       11.4030434355
  C        17.7328012994        5.6158626684       10.7379548933
  C        15.4702399432        7.4913036529       13.1301345454
  C        15.4854810821        7.4905417383       14.5518531693
  C        16.1870337090        6.4969304417       15.3050358142
  C        42.9459433586       31.8595517851       10.0729203794
  C        43.6463674113       30.7719172303       10.8168436176
  C        44.5917268091       31.0932691029       11.8030766444
  C        45.1974640424       30.0877405063       12.5507374358
  C        44.8712539744       28.7346389080       12.3357416596
  C        43.9456124118       28.4202755504       11.3223599632
  C        43.3367698745       29.4253989669       10.5743192869
  C        45.4888416256       27.6553515850       13.1389396265
  C        45.4929700061       27.6809802463       14.5606334518
  C        44.8058490607       28.6889951259       15.3072682320
  C        14.8565303365        8.5630347092       15.2642348392
  C        14.8750738648        8.5631596016       12.4515648044
  C        42.9465051480       31.9616416440        21.798772084038
  C        43.6918284189       30.8855432777        21.085382312138
  C        44.6562013032       31.1914556773        20.112856697838
  C        45.2777427582       30.1718770300        19.395141955138
  C        44.9542469089       28.8215204288        19.632991390238
  C        44.0210325697       28.5238563754        20.644030532438
  C        43.3927616406       29.5406149320        21.356208574638
  C        45.5632591537       27.7241296692        18.847720161938
  C        45.5334831849       27.7174374930        17.426419538538
  C        44.8271242001       28.7076331258        16.673453310838
  C        35.1283240610       26.6353670122        16.722907883038
  C        35.1219804020       26.6097515929        19.532760125038
  C        18.1487220650        3.2471086846        21.696433588738
  C        17.4301806228        4.3439331983        20.987193710538
  C        16.4149559184        4.0526632652        20.063619140738
  C        15.7666608202        5.0832904743        19.388231612638
  C        16.1213012904        6.4285441129        19.610951577938
  C        17.1126850365        6.7119225650        20.568214177338
  C        17.7603483288        5.6830152866        21.248000899938
  C        15.4907758350        7.5242109171        18.838490888838
  C        15.4965439821        7.5074794297        17.417355443138
  C        16.1932869862        6.5057722156        16.670643229338
  H        10.6723449495       12.4654405164        19.894784454438
  H        11.6946552316       10.5506192734        18.652932636338
  H        15.3921962145       11.1695374634        20.761242227638
  H        14.3516829297       13.0722926476        22.006385874038
  H        13.3763207379       11.6312158184        17.191160129338
  H        50.3228493971       22.7483223750        19.976687063338
  H        49.3197571013       24.6228171856        18.670654614338
  H        45.6422913823       24.1612391416        20.853592569238
  H        46.6632015264       22.2902728177        22.161874118038
  H        47.6298788544       23.5759002861        17.236043894938
  H        14.8725113840        8.5885727787        20.598382906038
  H        50.2871357211       22.7025334236       12.0603491139
  H        49.2692561086       24.5754555673       13.3604208858
  H        45.6105783631       24.1092480629       11.1461278869
  H        46.6526407660       22.2538742061        9.8318460718
  H        47.6078514483       23.5518660327       14.7969026399
  H        40.6341499793       17.0659850418       11.4106972509
  H        48.6871676206       14.0950843065        23.789841330238
  H        10.6812893652       12.4664033092       12.0929419077
  H        11.6895985630       10.5244714906       13.2966606311
  H        15.3939877624       11.1596990884       11.2062976444
  H        14.3654509988       13.0880921617        9.9910484186
  H        13.3759710830       11.6221942642       14.7531333538
  H        47.9301114679       14.2190887960        9.7107052832
  H        47.7800518524       14.3741954031        22.485234610238
  H        49.0830236265       18.5518764446       10.8671823105
  H        10.4161286469       14.1343804050        7.9987954695
  H        24.4836928757        3.0252527323        19.905895331138
  H        25.6284626144        4.8806910650        18.679066926638
  H        23.2564370072        7.7537275262        20.828067521238
  H        22.1302456922        5.8885113343        22.056950014838
  H        23.8285675083        5.7875170560        17.245725015438
  H        36.3769231870       32.1891701433        19.957184676038
  H        35.2531892057       30.3649235936        18.675720282138
  H        37.5197779968       27.4407930220        20.869946543738
  H        38.6231421602       29.2778058926        22.160536104838
  H        37.0231154287       29.4533938611        17.257339005438
  H        25.7424616732        8.6073313872        20.638347640238
  H        36.4518715978       32.2423485818       12.1066570100
  H        35.3372377297       30.4243093215       13.3999571818
  H        37.5254230915       27.4879289409       11.1420139213
  H        38.6144885343       29.3177334693        9.8358666457
  H        37.0396347068       29.4720646237       14.8192182775
  H        46.1095481141       26.5876400339       11.3856311308
  H        44.6682553932       35.1161311964        23.803735017938
  H        24.4471585894        3.0379492270       12.0792617660
  H        25.5885867724        4.8734973160       13.3248542148
  H        23.1864821619        7.7688626853       11.2409017671
  H        22.0572817508        5.9214352860        9.9944610793
  H        23.8137590054        5.7892930576       14.8077391041
  H        44.9535278600       34.3901486744        9.6950600503
  H        44.9013710109       34.2066677627        22.480430532238
  H        40.6659945800       33.2092276352       10.8531749270
  H        23.1507607505        1.9579113135        8.0049460029
  H        25.8325376524       19.6334333166        19.877801179638
  H        23.6608747736       19.6840799843        18.651981496538
  H        22.3413068092       16.2387092241        20.862597548238
  H        24.5162217222       16.2057693462        22.089301465938
  H        23.7247700422       17.6509342741        17.237734080338
  H        35.1537810915       15.4340655821        19.989803941038
  H        37.2744719413       15.3886513034        18.673158946638
  H        38.6942341256       18.8050381106        20.867341529538
  H        36.5693088106       18.8312725337        22.186160306838
  H        37.2219074555       17.3628467698        17.231830282538
  H        20.3596049028       17.9870794416        20.660179563138
  H        35.1531926899       15.4382075392       12.0898016468
  H        37.2920075561       15.3628478371       13.3752705670
  H        38.7301205441       18.7603290863       11.1636851950
  H        36.5895882182       18.8135918486        9.8726084063
  H        37.2316053588       17.3491216480       14.7925857839
  H        35.1462468994       26.6812740671       11.3914109948
  H        28.4945209977       21.0837127748        23.874634028038
  H        25.7573201250       19.6271932181       12.1664596319
  H        23.5739151383       19.6786361476       13.3830666742
  H        22.3008126164       16.1806552792       11.2295274311
  H        24.4852579166       16.1495494072       10.0104809587
  H        23.7022276333       17.6377593234       14.7991016712
  H        29.0046809010       21.7263735906        9.7400416587
  H        29.1958302677       21.7207571391        22.563549887838
  H        32.0868638348       18.5792758287       10.9315629432
  H        27.4009136342       19.0724249078        8.0766043947
  H        14.8504716792       19.6496553186       12.1393355757
  H        17.0127182750       19.6967300049       13.3820761706
  H        18.3040654168       16.1888157343       11.2549630460
  H        16.1380541741       16.1577124356       10.0112710445
  H        16.9223847653       17.7067516833       14.8495515256
  H        46.0890732629       15.4318143065       12.0570374711
  H        43.9620456305       15.3632221155       13.3595305636
  H        42.5409452904       18.8000900473       11.1980123578
  H        44.6686001766       18.8435509995        9.8849005384
  H        44.0165577658       17.3109482517       14.8193699484
  H        20.2930734200       17.9213409216       11.4227594860
  H        46.0455245595       15.3890109605        20.019076943838
  H        43.9167987586       15.3248339702        18.720764634738
  H        42.5210800089       18.7903254827        20.852094497538
  H        44.6560664276       18.8401287865        22.152081580238
  H        44.0067567794       17.3003336898        17.258615165438
  H        46.1995153514       26.6826818141        20.613197481738
  H        52.7412292781       21.0626329914        8.1946684491
  H        14.8788382709       19.6785189208        19.889997612538
  H        17.0796041388       19.7560806774        18.710771493638
  H        18.3393477792       16.2380799655        20.839441845038
  H        16.1406722190       16.1844027400        22.028570948938
  H        16.9434987035       17.7250397247        17.286432467638
  H        52.3224811907       21.6732787382        22.284067109438
  H        52.0132493915       21.7020779035        9.4956282061
  H        49.0677870316       18.6077575352        21.193768383538
  H        13.2476878245       19.0161383327        23.967211312038
  H        29.9586769653       12.4843612343       12.2384918783
  H        28.9087620013       10.5390926692       13.4025312366
  H        25.2662422592       11.1989974931       11.2140035568
  H        26.3357595689       13.1301617503       10.0406308373
  H        27.1955806450       11.6671887683       14.7961063096
  H        30.9977355952       22.7752030694       12.0086493954
  H        32.0059160893       24.6543111760       13.3075411591
  H        35.6984936821       24.1373682261       11.1634665957
  H        34.6696913719       22.2654415397        9.8595327589
  H        33.6757315404       23.5809423992       14.7543752849
  H        25.7340991265        8.5961886771       11.4013393157
  H        30.9278762847       22.7490794047        19.955920881538
  H        31.9572872437       24.6009110011        18.641574638538
  H        35.6224432848       24.1086409995        20.838276760338
  H        34.5774984427       22.2540056167        22.150453210838
  H        33.6509949892       23.5673077578        17.195827245738
  H        40.5993304158       17.0814002774        20.640941327538
  H        32.5113182508       14.1496334018        8.2545074111
  H        29.9144636283       12.5068174232        19.928636247238
  H        28.8871593181       10.6053071561        18.677023651438
  H        25.2072739679       11.1909862669        20.824510960638
  H        26.2528872030       13.0823017260        22.080358943138
  H        27.1855117785       11.6799083446        17.234764067638
  H        33.3001706906       14.1962457343        22.436794140038
  H        33.4039622707       14.4073384560        9.6050818485
  H        32.1017244085       18.5171705880        21.142827529338
  H        30.2295954470       14.1945033529        8.0719126978
  H        16.1186408427        2.9634019961       12.1298944961
  H        14.9535172933        4.8204678282       13.3226616435
  H        17.3659709641        7.6860709030       11.2097744732
  H        18.5146795560        5.8185999970       10.0099603259
  H        16.7536586005        5.7396296111       14.7715554216
  H        44.8278674413       32.1403647902       11.9773732904
  H        45.9372192538       30.3415240692       13.3067798807
  H        43.6831159445       27.3781804631       11.1520948203
  H        42.6003346469       29.1900062053        9.8094988355
  H        44.2304727497       29.4367504447       14.7689722853
  H        14.8514057769        8.5464990944       11.3633416282
  H        44.8995511147       32.2341480726        19.921222257638
  H        46.0244901285       30.4131269743        18.641755192038
  H        43.7643639368       27.4841012798        20.835849478638
  H        42.6465193156       29.3177769964        22.114893244038
  H        44.2685849638       29.4705072872        17.208020335738
  H        35.0831299877       26.6212190091        20.620373758138
  H        36.6051808250       35.1341847230        8.1805912555
  H        16.1438612458        3.0130931268        19.893890937438
  H        14.9743325586        4.8564616315        18.678146549838
  H        17.3962248605        7.7473863852        20.745084665738
  H        18.5432457279        5.8935243705        21.972724295938
  H        16.7648001739        5.7555777418        17.209060618638
  H        36.2787631177       34.4825417553        22.262984379338
  H        36.3811267993       34.2091245258        9.4995591040
  H        40.5806417417       33.2030221009        21.143185510438
  H        17.4710904231        1.9477583174        23.964044731338
  H        29.1087121097       19.4377742020       12.4621459892
  H        29.7788366485       19.7387946173        19.574273560638
  H        30.3905733574       15.8027375795        19.833110114238
  H        31.2077559047       15.6425328155       12.5247938846
  H        28.0509325438       17.8291873138       14.5174701990
  H        29.2249954865       15.6872802368       14.5483807637
  H        31.5538386629       19.4392525171        17.214916134438
  H        32.1625148378       16.1496585746        17.836788233038
  H        28.3773244751       17.6134770053        19.074912549238
  H        18.8537002157        0.8692724926       12.3351825547
  H        40.5280393034       35.2292248277        19.941802014038
  H        42.3244289594       34.4193684048        19.580197383038
  H        22.0877624372        0.6919583752       12.3516970611
  H        11.5971525004       18.7125372516       12.3822649038
  H        52.2650910465       18.4310323150        19.667422108738
  H        49.2545674268       16.4771623850        19.574666101538
  H        10.1501277530       15.7983144145       12.2929360680
  H        50.8501224043       17.6925525156        19.943959638138
  H        10.0460471578       17.3946318405       12.0519656941
  H        20.2149102956        0.0023273032       12.0419863219
  H        39.1837398967       36.1244891290        19.676128984738
 Ni        30.9046661869       17.8426344717        18.818694287738
 Ni        30.9436131289       16.6410574692       15.828725318538
 Ni        29.8454566198       18.6442689442       15.829127534438