     569
 i =      150, E =     -4729.5165192703
  C        11.8585014326       14.0534096133        21.731380271938
  C        12.4559319762       12.8903531183        21.013101133338
  C        11.7044801631       12.1719773003        20.070849168238
  C        12.2808175705       11.1097444598        19.378493865838
  C        13.6211511676       10.7393994254        19.606747247838
  C        14.3540276243       11.4423583181        20.580890250338
  C        13.7811488351       12.5073063785        21.272433749338
  C        14.2607147599        9.6487705871        18.833361522138
  C        14.2560845520        9.6566997430        17.411657930738
  C        13.7430165585       10.7588383931        16.657705675438
  C        49.1264392344       21.2334893575        21.869596108538
  C        48.5495746859       22.4012102621        21.142435815538
  C        49.2996194140       23.0685804929        20.161474143738
  C        48.7326236196       24.1076036472        19.428200799138
  C        47.4020152498       24.5090893154        19.656718352238
  C        46.6710060987       23.8601104606        20.670124517738
  C        47.2335250036       22.8153134232        21.399564101538
  C        46.7718405945       25.5867808114        18.859423946138
  C        46.7610751700       25.5572755159        17.437666308338
  C        47.2610111605       24.4421895955        16.694168845838
  C        14.8599700471        8.5703187577        16.698411611838
  C        14.8914251101        8.5967738970        19.510015572238
  C        49.1129575074       21.2035456079       10.1454489977
  C        48.5276594489       22.3648921144       10.8724919853
  C        49.2669471912       23.0256882221       11.8653223389
  C        48.6906282182       24.0602575575       12.5967322883
  C        47.3601737180       24.4569410026       12.3585472574
  C        46.6396895369       23.8119372808       11.3351416396
  C        47.2132235008       22.7759991920       10.6034028175
  C        46.7217688173       25.5319094256       13.1495692537
  C        46.7335239683       25.5282423465       14.5712636722
  C        47.2488553346       24.4289632478       15.3276178796
  C        40.6263013896       17.1045646023       15.2873795258
  C        40.6224522259       17.0917502480       12.4786760779
  C        11.8827444732       14.0862788853       10.2855065848
  C        12.4717573071       12.9101300430       10.9894583414
  C        11.7143965177       12.1776266408       11.9162398881
  C        12.2807826079       11.0950738537       12.5846737144
  C        13.6192919534       10.7205895830       12.3522666568
  C        14.3569885225       11.4352990326       11.3905965273
  C        13.7917575544       12.5165539868       10.7178954082
  C        14.2529054927        9.6239309302       13.1227629593
  C        14.2519579597        9.6441320575       14.5446055545
  C        13.7423197253       10.7532002359       15.2916604854
  C        22.5119434643        3.2430743651        21.741995879638
  C        23.2287736313        4.3448237505        21.039229907638
  C        24.2223471109        4.0574704502        20.091605309138
  C        24.8543774699        5.0919780379        19.406765493938
  C        24.5084639860        6.4358954767        19.649818949738
  C        23.5420575289        6.7146908301        20.633486746338
  C        22.9053280618        5.6819119836        21.316784386738
  C        25.1211575803        7.5390577098        18.875064294538
  C        25.0932993577        7.5369931963        17.453555109138
  C        24.3884883348        6.5416922341        16.705048113438
  C        38.3035782261       31.9296377602        21.837342528838
  C        37.5767368690       30.8404788983        21.124740864538
  C        36.6172251915       31.1443112093        20.146832794438
  C        36.0019353767       30.1242220487        19.426499110438
  C        36.3312476866       28.7751160499        19.662601467038
  C        37.2619827572       28.4787706015        20.676198533638
  C        37.8813058272       29.4974602159        21.395432092838
  C        35.7291367932       27.6828092361        18.865773510038
  C        35.7582710168       27.6967619866        17.444366921438
  C        36.4601583484       28.7004646704        16.705285247438
  C        25.7184575888        8.6082124791        16.737115519838
  C        25.7249073548        8.6075982341        19.548779653038
  C        38.3272720049       31.9617203004       10.1547057453
  C        37.6028354363       30.8879518217       10.8925329185
  C        36.6725572917       31.1953058028       11.8972026656
  C        36.0612915665       30.1757374571       12.6241959183
  C        36.3662459307       28.8233990848       12.3705298716
  C        37.2728753947       28.5260519486       11.3346391657
  C        37.8860576738       29.5420466709       10.6085832782
  C        35.7610285379       27.7234625839       13.1556736836
  C        35.7747903680       27.7176008389       14.5776702206
  C        36.4676095987       28.7108077056       15.3387162759
  C        46.1355317035       26.6208767000       15.2813951294
  C        46.0877680985       26.5802256308       12.4735072755
  C        22.4631323815        3.2565702497       10.2569299294
  C        23.1622033490        4.3652422933       10.9767669728
  C        24.1697580795        4.0783410773       11.9116215633
  C        24.8024922154        5.1076530453       12.6048829693
  C        24.4479673235        6.4541497939       12.3868119673
  C        23.4636519944        6.7344220685       11.4200776725
  C        22.8266579081        5.7053169031       10.7268232165
  C        25.0812190109        7.5509025853       13.1622236507
  C        25.0733314488        7.5426661128       14.5851567172
  C        24.3775544722        6.5451237558       15.3384222524
  C        26.5403184284       17.8657856563        21.783175364938
  C        25.2338919718       17.9126266346        21.068732401238
  C        24.9789476229       18.9114489781        20.115744771438
  C        23.7758687980       18.9224641896        19.416021887938
  C        22.7943213125       17.9391539867        19.650663526838
  C        23.0422151923       16.9659276691        20.636522644938
  C        24.2486750401       16.9476997689        21.332635107738
  C        21.5332523147       17.9188586145        18.873449150338
  C        21.5473672436       17.9077450398        17.451876301538
  C        22.7597934995       17.7876089306        16.702219575138
  C        34.4823788310       17.2684607255        21.903983782038
  C        35.7685955160       17.2190804821        21.156671715138
  C        35.9642972156       16.2479987316        20.161842771838
  C        37.1408119726       16.2298521347        19.420164474438
  C        38.1527597929       17.1811834128        19.652822733738
  C        37.9594705596       18.1337058835        20.671517780838
  C        36.7796657867       18.1579404742        21.411360774238
  C        39.4011391039       17.1779403821        18.859078352838
  C        39.3858966712       17.1704873628        17.437597336538
  C        38.1743646843       17.2946174667        16.687765717738
  C        20.3068604314       17.9318208932        16.734493535038
  C        20.3053692795       17.9123658936        19.546879386938
  C        34.4372901639       17.2385150456       10.1769836567
  C        35.7338536948       17.1435777033       10.9052148358
  C        35.9280826725       16.1797668510       11.9056897188
  C        37.1193096967       16.1484712986       12.6262608027
  C        38.1435369437       17.0797346501       12.3657234717
  C        37.9537064384       18.0172130494       11.3331593127
  C        36.7621173731       18.0540049640       10.6159362565
  C        39.3959519144       17.0938935705       13.1525559666
  C        39.3836039960       17.1274630878       14.5734100144
  C        38.1729700015       17.2720708729       15.3215742037
  C        35.1492973365       26.6368651727       15.2835214049
  C        35.1710897592       26.6514373549       12.4744118244
  C        26.5701537359       17.8341090776       10.3257890935
  C        25.2594583858       17.8802681296       11.0298400764
  C        25.0044876109       18.8795618660       11.9817321593
  C        23.7870522615       18.9083037215       12.6549707439
  C        22.7967754118       17.9389435637       12.3987355131
  C        23.0473152845       16.9646572639       11.4156068114
  C        24.2654339128       16.9323758721       10.7411878083
  C        21.5305361401       17.9242795144       13.1647851285
  C        21.5454731760       17.9090052803       14.5858802392
  C        22.7582071251       17.7868145706       15.3359788046
  C        14.0465217931       17.8329299094       10.2826342525
  C        15.3554378381       17.8996716008       10.9964456085
  C        15.6177679457       18.9165575574       11.9272394340
  C        16.8300128042       18.9443311478       12.6132458390
  C        17.8109683133       17.9576972555       12.3895520293
  C        17.5550519944       16.9668206974       11.4236520913
  C        16.3425083358       16.9349801535       10.7386982085
  C        19.0761393407       17.9396611470       13.1624592685
  C        19.0639136261       17.9300800301       14.5840112218
  C        17.8498179584       17.8322906273       15.3339656623
  C        46.8011973260       17.2114040193       10.1499966621
  C        45.5021762805       17.1315758505       10.8767387224
  C        45.2947809999       16.1441699626       11.8522161441
  C        44.1083245295       16.1137177395       12.5797214512
  C        43.0999817465       17.0705632765       12.3533864820
  C        43.3013889520       18.0326918131       11.3453616930
  C        44.4888701239       18.0672931638       10.6188581211
  C        41.8510092381       17.0826687010       13.1483379147
  C        41.8678592143       17.0990055437       14.5699727726
  C        43.0831045814       17.1955062950       15.3182612239
  C        20.3051950924       17.9331356416       15.3008241970
  C        20.3038537499       17.9189478212       12.4887025406
  C        46.7887130851       17.2354946227        21.872651390838
  C        45.4936493876       17.1411063496        21.142565961438
  C        45.2789370407       16.1478160341        20.174958579238
  C        44.0972383330       16.1295496227        19.438345432238
  C        43.1011336587       17.1021488874        19.652046288338
  C        43.3081579221       18.0679048776        20.654995015038
  C        44.4903904237       18.0921271755        21.387143295038
  C        41.8543518269       17.1268580812        18.857181943338
  C        41.8696271086       17.1202892841        17.436031569838
  C        43.0840945656       17.2020809009        16.684849256338
  C        46.1531862241       26.6372255686        16.715929909638
  C        46.1618144545       26.6558384010        19.525566895138
  C        14.0366592614       17.8258933029        21.694819736938
  C        15.3472880501       17.8894495622        20.989577321438
  C        15.6181083814       18.9127865057        20.069708206338
  C        16.8402301651       18.9461581369        19.403789357938
  C        17.8139794189       17.9549514628        19.634800948838
  C        17.5482220610       16.9560855828        20.588144159538
  C        16.3284542138       16.9225323098        21.257902428638
  C        19.0804476204       17.9356434657        18.869705276238
  C        19.0662823817       17.9272079850        17.449078936738
  C        17.8510917436       17.8303363334        16.699924604538
  C        28.8142639300       14.0802747766       10.3635040653
  C        28.2070509249       12.9126508546       11.0580116307
  C        28.9295337587       12.1888375766       12.0186579034
  C        28.3333919361       11.1172955701       12.6787337278
  C        27.0017928275       10.7444005855       12.4026514902
  C        26.3019850524       11.4497823799       11.4068102508
  C        26.8942546950       12.5223835070       10.7460481440
  C        26.3347451000        9.6639106163       13.1648905505
  C        26.3215053520        9.6879047129       14.5862876208
  C        26.8215331364       10.8000604722       15.3353404094
  C        32.1738097253       21.2369550343       10.1398502306
  C        32.7710490151       22.3959878024       10.8648390996
  C        32.0283612323       23.0668011238       11.8486601032
  C        32.6008217735       24.1065402970       12.5748794600
  C        33.9312230608       24.5033421670       12.3383989782
  C        34.6563888091       23.8499955547       11.3240845089
  C        34.0867929436       22.8048523098       10.5996773247
  C        34.5615381725       25.5798013423       13.1360289668
  C        34.5596036593       25.5505574268       14.5577789207
  C        34.0599450890       24.4324192106       15.2972363621
  C        25.7118754745        8.6078392930       15.3023118042
  C        25.6980632763        8.6139601418       12.4890634804
  C        32.1103330063       21.2330982133        21.865395236038
  C        32.6996190565       22.3786652345        21.119282756738
  C        31.9723024625       23.0236897294        20.106821005538
  C        32.5540628144       24.0542445579        19.372933674538
  C        33.8760620688       24.4675569506        19.630863736138
  C        34.5853770877       23.8343435546        20.669805734138
  C        34.0090825047       22.7993322046        21.400643135938
  C        34.5178901913       25.5466435724        18.845863713338
  C        34.5364219359       25.5336315604        17.423813120938
  C        34.0480356085       24.4245672405        16.663854700938
  C        40.6269731250       17.1211503193        16.721488502638
  C        40.6284463607       17.1728822371        19.530101267738
  C        28.7559890177       14.0435055241        21.810954424638
  C        28.1553933190       12.8853834343        21.091476542638
  C        28.8839129811       12.2167625422        20.095117548538
  C        28.3056493149       11.1636952334        19.391638421338
  C        26.9828942617       10.7543703652        19.656507956038
  C        26.2746055712       11.4080754876        20.682980314438
  C        26.8506344939       12.4612615322        21.389815163138
  C        26.3388630079        9.6719344392        18.875607126938
  C        26.3245886025        9.6927489660        17.453315417238
  C        26.8208494341       10.8037716636        16.701437307438
  C        18.1354150492        3.1808654136       10.3171128939
  C        17.4058484805        4.2780492096       11.0156703477
  C        16.3902801199        3.9994458775       11.9432643603
  C        15.7423350856        5.0392646230       12.6068099375
  C        16.0939059291        6.3830470885       12.3670717047
  C        17.0830803772        6.6528133528       11.4031651007
  C        17.7323911966        5.6156279417       10.7380812170
  C        15.4694648427        7.4906543862       13.1301395560
  C        15.4849663464        7.4901338042       14.5518521988
  C        16.1866071516        6.4965848345       15.3050299721
  C        42.9458655413       31.8595209880       10.0729027758
  C        43.6462459479       30.7718980543       10.8168205391
  C        44.5920188491       31.0932187673       11.8026617018
  C        45.1977171114       30.0876659454       12.5503052925
  C        44.8710148840       28.7346387583       12.3356414619
  C        43.9448971532       28.4202914444       11.3227107261
  C        43.3360849472       29.4254429696       10.5746900377
  C        45.4886316625       27.6553584245       13.1388064440
  C        45.4928466463       27.6810134776       14.5604879988
  C        44.8057477450       28.6890612440       15.3070899743
  C        14.8560573201        8.5626844186       15.2641841122
  C        14.8739757815        8.5622768780       12.4515277841
  C        42.9463298846       31.9613582308        21.798729312638
  C        43.6914612548       30.8852448344        21.085229311538
  C        44.6562618601       31.1911505145        20.113129272238
  C        45.2777091237       30.1715585518        19.395367634138
  C        44.9536271530       28.8212717119        19.632761806138
  C        44.0198589455       28.5236003833        20.643265112738
  C        43.3916763540       29.5403711528        21.355492382438
  C        45.5626774268       27.7239058000        18.847506155938
  C        45.5331784031       27.7173543087        17.426213692338
  C        44.8269332102       28.7076424347        16.673272721538
  C        35.1392916913       26.6271334767        16.718230812538
  C        35.1261932539       26.6074733559        19.527744538138
  C        18.1486880218        3.2469109693        21.696455587438
  C        17.4299214374        4.3437694821        20.987223069638
  C        16.4146931981        4.0524010174        20.063717843938
  C        15.7662725273        5.0829622639        19.388306778438
  C        16.1208852493        6.4282183582        19.610936269438
  C        17.1122775637        6.7116966506        20.568150634138
  C        17.7600608460        5.6828520380        21.247928901138
  C        15.4903360995        7.5238750796        18.838458661338
  C        15.4962224884        7.5072421017        17.417319329238
  C        16.1929361822        6.5054962020        16.670636722238
  H        10.6725286760       12.4665083472        19.893432116738
  H        11.6946394171       10.5516280328        18.651583863438
  H        15.3908118703       11.1671895793        20.763167764438
  H        14.3502760627       13.0699190843        22.008596207938
  H        13.3760942038       11.6310267394        17.190969119938
  H        50.3223726397       22.7486446832        19.976836987838
  H        49.3190683749       24.6229364298        18.670641271238
  H        45.6414300673       24.1606964115        20.853132568038
  H        46.6624686322       22.2900122496        22.161583876038
  H        47.6293196732       23.5757009358        17.235829995838
  H        14.8716319146        8.5879371814        20.598319890438
  H        50.2870051544       22.7028752523       12.0601939254
  H        49.2689959398       24.5757889816       13.3602004437
  H        45.6102159480       24.1090259455       11.1462105942
  H        46.6522701463       22.2537069487        9.8320255040
  H        47.6074959832       23.5517921203       14.7967142334
  H        40.6205699970       17.0458028165       11.3913042380
  H        48.6870541489       14.0948971180        23.789934895538
  H        10.6811683026       12.4672837210       12.0941154783
  H        11.6890630510       10.5252047920       13.2978519958
  H        15.3921185000       11.1566870619       11.2040723374
  H        14.3638747409       13.0852811755        9.9886908598
  H        13.3754741774       11.6217950212       14.7530090584
  H        47.9302521701       14.2181754875        9.7107516601
  H        47.7798716746       14.3729312490        22.485055670338
  H        49.0809879237       18.5512867087       10.8666675913
  H        10.4154954083       14.1342136876        7.9988392722
  H        24.4771040849        3.0170223080        19.902707901738
  H        25.6255391737        4.8689278818        18.672604729638
  H        23.2674949831        7.7496377346        20.826624454738
  H        22.1373307733        5.8876327347        22.058449864638
  H        23.8257537940        5.7847166353        17.243550874338
  H        36.3782520898       32.1874305598        19.953657473338
  H        35.2570998872       30.3632330228        18.670611056038
  H        37.5241065337       27.4397830069        20.864979927838
  H        38.6251630848       29.2764802721        22.157209554238
  H        37.0242369934       29.4520977577        17.249834383738
  H        25.7627433666        8.5842899204        20.636360123338
  H        36.4498436209       32.2392229096       12.1061496427
  H        35.3349623494       30.4195075285       13.3963669953
  H        37.5197480529       27.4860549315       11.1316646726
  H        38.6089966944       29.3173270055        9.8282133936
  H        37.0385796854       29.4699002418       14.8118984328
  H        46.1090258321       26.5875542463       11.3854685241
  H        44.6681766418       35.1159706237        23.803770948038
  H        24.4476731600        3.0398326299       12.0769025074
  H        25.5867747499        4.8772417229       13.3228236943
  H        23.1775681662        7.7690987578       11.2422249828
  H        22.0510210346        5.9197043861        9.9951817518
  H        23.8060662564        5.7912277645       14.8048203915
  H        44.9534528432       34.3901683107        9.6951115671
  H        44.9014240277       34.2065436269        22.480478506138
  H        40.6651026308       33.2084866112       10.8528569875
  H        23.1507659483        1.9573386180        8.0051348956
  H        25.7354056644       19.6717160388        19.936667441338
  H        23.5806494043       19.6994430529        18.680118891038
  H        22.2923823312       16.2000522121        20.823704286138
  H        24.4568856475       16.1802734512        22.074276120938
  H        23.6967082363       17.6630222741        17.237699193038
  H        35.1774168782       15.5208380185        19.977038375438
  H        37.2920559331       15.4701924858        18.656493474838
  H        38.7331843473       18.8767357851        20.853464410038
  H        36.6130522361       18.9077282759        22.181362799638
  H        37.2405469602       17.4407589285        17.223090116038
  H        20.3031514101       17.9436594356        20.634918993138
  H        35.1279267279       15.4745239457       12.1181834343
  H        37.2684628655       15.3984740794       13.3998965374
  H        38.7377341006       18.7430455671       11.1277371355
  H        36.5948888338       18.7961925763        9.8391827861
  H        37.2378341116       17.3997181597       14.7839000736
  H        35.1394389371       26.6776460801       11.3868181204
  H        28.5000351379       21.0745590159        23.960155616438
  H        25.7720262130       19.6257272299       12.1748943952
  H        23.5874335662       19.6867034013       13.3881858927
  H        22.2900912124       16.2098711052       11.2137560406
  H        24.4746651743       16.1678144253        9.9970495904
  H        23.6941789089       17.6606591042       14.8000566247
  H        29.0167037717       21.7170075281        9.6604606228
  H        29.0892719599       21.7989156879        22.549591917338
  H        32.0389593411       18.5419808286       10.9353717022
  H        27.3745241480       18.9934376379        23.963187947738
  H        14.8605233206       19.6782962543       12.0987179944
  H        17.0311625993       19.7364141653       13.3313694250
  H        18.3040455546       16.1984293248       11.2434230474
  H        16.1301592899       16.1570128284       10.0092662945
  H        16.9112487462       17.7262950986       14.7979185647
  H        46.0818655096       15.4166996030       12.0360074478
  H        43.9493569861       15.3433656212       13.3311228713
  H        42.5292801950       18.7778609458       11.1654112368
  H        44.6625265045       18.8265333220        9.8598868174
  H        44.0216020434       17.2957589196       14.7806914949
  H        20.3053122176       17.9520984671       11.4006637675
  H        46.0529225920       15.4031477050        20.003727864038
  H        43.9316818766       15.3562438279        18.691424405838
  H        42.5445512075       18.8239927630        20.825152772938
  H        44.6709399454       18.8554480468        22.139963053738
  H        44.0235028251       17.3066765049        17.220003127538
  H        46.1984267055       26.6822580569        20.613021790138
  H        52.7409963198       21.0624904198        8.1945749125
  H        14.8620815999       19.6752902663        19.896228437638
  H        17.0549541937       19.7428665202        18.694858034538
  H        18.2941987585       16.1849031811        20.768602936838
  H        16.1041692279       16.1421559539        21.980954263538
  H        16.9134101627       17.7227599977        17.237001578238
  H        52.3217502288       21.6734456690        22.284788695438
  H        52.0131304984       21.7022722982        9.4954310201
  H        49.0678739337       18.6086602278        21.193928007938
  H        13.2468479033       19.0165660081        23.965251144738
  H        29.9542054387       12.4818245865       12.2365877493
  H        28.8954494807       10.5559427787       13.4219232503
  H        25.2731884523       11.1729002666       11.1860384445
  H        26.3485320972       13.0872666922        9.9944913089
  H        27.1802363739       11.6734172417       14.7990030049
  H        31.0069660254       22.7474344201       12.0406122261
  H        32.0200418969       24.6250838452       13.3345125271
  H        35.6864126410       24.1462943639       11.1365457947
  H        34.6527201510       22.2754832677        9.8366602006
  H        33.7100617492       23.5596938088       14.7532365208
  H        25.7287433096        8.5965226161       11.4010292360
  H        30.9572556162       22.6938698303        19.897839701138
  H        31.9843357571       24.5551137609        18.593365668838
  H        35.6089588555       24.1416036312        20.873887178838
  H        34.5624684873       22.2885442532        22.185187329338
  H        33.6891107009       23.5453723424        17.191429059638
  H        40.6284660453       17.1488232746        20.618132241938
  H        32.5441371668       14.1317814782        8.2655514407
  H        29.9006248261       12.5411251990        19.885346390238
  H        28.8778944086       10.6425743832        18.627306965338
  H        25.2516821142       11.1041738689        20.895360340438
  H        26.2967704524       12.9842830353        22.165691576638
  H        27.1774268802       11.6803200063        17.234668371238
  H        33.3965727022       14.1853662413        22.393462459738
  H        33.4075899840       14.4136437395        9.6036568709
  H        32.0245639673       18.4496516968        21.088691408438
  H        30.1936312039       14.2071285670        23.972447217638
  H        16.1184993110        2.9628683844       12.1296751937
  H        14.9529782195        4.8196768933       13.3225114852
  H        17.3651497755        7.6857714455       11.2099771317
  H        18.5142375665        5.8183936921       10.0100593235
  H        16.7530558092        5.7391679852       14.7715232884
  H        44.8284706654       32.1402851725       11.9766889785
  H        45.9377429541       30.3413584926       13.3061125494
  H        43.6818717379       27.3782592192       11.1528786480
  H        42.5991860113       29.1901035492        9.8103015949
  H        44.2303664285       29.4367942764       14.7687668221
  H        14.8499401614        8.5452887370       11.3633169714
  H        44.9000017492       32.2338183099        19.921870711138
  H        46.0247626853       30.4127317007        18.642261703438
  H        43.7625739865       27.4838984198        20.834540096938
  H        42.6449514479       29.3175682329        22.113712604838
  H        44.2683300671       29.4704576209        17.207856999938
  H        35.0829198686       26.6223551080        20.615155978238
  H        36.6050666891       35.1340501387        8.1806088929
  H        16.1436446301        3.0127949179        19.894099635338
  H        14.9738991736        4.8560154296        18.678305197638
  H        17.3956959334        7.7471963954        20.744987162138
  H        18.5429356265        5.8933257215        21.972685919138
  H        16.7643336600        5.7552406878        17.209093859538
  H        36.2788254055       34.4822983246        22.263188243238
  H        36.3809556183       34.2091986608        9.4998126669
  H        40.5800851768       33.2026263534        21.143423152638
  H        17.4710022767        1.9476598015        23.963961403838
  H        29.2422166616       19.3840750323       12.5012671258
  H        28.7520364349       18.9888683898        19.735198977338
  H        31.6570188264       15.9094968742        19.461131598538
  H        31.3275502956       15.6025737513       12.4623015336
  H        27.9666166369       17.9535312608       14.1371196934
  H        29.4391109107       15.4870289305       14.3992320872
  H        32.6264301201       17.1989234072        17.292295522738
  H        18.8528384341        0.8687713475       12.3353272013
  H        40.5280574285       35.2293013953        19.941946245738
  H        42.3234718565       34.4185296212        19.580631682438
  H        22.0878287337        0.6925387417       12.3514641607
  H        11.5968097609       18.7129495349       12.3828260903
  H        52.2644791278       18.4316108306        19.667125830238
  H        49.2557522228       16.4765461565        19.574040081538
  H        10.1507632962       15.7982756622       12.2927230234
  H        50.8498089901       17.6923136064        19.943925757938
  H        10.0461153803       17.3946542683       12.0520307689
  H        20.2139271912        0.0021623285       12.0421486558
  H        39.1835315022       36.1242674222        19.675975998438
 Ni        30.5220333574       17.8092168718        18.569460222938
 Ni        30.9834476904       16.3852679677       15.906878721838
 Ni        29.5094764873       18.1574399962        16.077249454938
 Ni        30.0562588626       17.3588374821       13.0750793419
  O        10.6498090999       14.3650638762        21.475600226738