     573
 i =      157, E =     -4762.8243085855
  C        11.8585759509       14.0535745121        21.731376171538
  C        12.4560480347       12.8904934844        21.013128679038
  C        11.7044563047       12.1718267100        20.071198092638
  C        12.2807919407       11.1096029436        19.378816509138
  C        13.6212369108       10.7395002242        19.606810714538
  C        14.3542519031       11.4427465002        20.580635016138
  C        13.7814056202       12.5077384198        21.272164166238
  C        14.2608313932        9.6488824725        18.833386872738
  C        14.2562636484        9.6568489397        17.411677378538
  C        13.7431114124       10.7589675008        16.657750110938
  C        49.1265437806       21.2333025741        21.869534578338
  C        48.5497141434       22.4011260739        21.142439911138
  C        49.2998478164       23.0686602648        20.161652307838
  C        48.7328867556       24.1077472051        19.428424416638
  C        47.4022241751       24.5091313082        19.656809403638
  C        46.6711208509       23.8599860671        20.670037972438
  C        47.2335968096       22.8151149850        21.399424893338
  C        46.7720457493       25.5868550790        18.859516948038
  C        46.7612179397       25.5573285239        17.437752195938
  C        47.2611695427       24.4422400157        16.694263895538
  C        14.8602745053        8.5705446112        16.698409250238
  C        14.8915262153        8.5968658898        19.510022379438
  C        49.1129604778       21.2034445016       10.1452832753
  C        48.5275327662       22.3647178231       10.8724422575
  C        49.2668366207       23.0256719978       11.8651553552
  C        48.6904564532       24.0601835113       12.5966202835
  C        47.3599114869       24.4566716145       12.3586125565
  C        46.6393893693       23.8114946788       11.3353394077
  C        47.2129877659       22.7756133617       10.6035496496
  C        46.7215031372       25.5316737205       13.1496294325
  C        46.7333970591       25.5281205128       14.5713310030
  C        47.2488954695       24.4289343388       15.3277107754
  C        40.6162387684       17.0910157314       15.3163307878
  C        40.6308355597       17.1095393163       12.5062133426
  C        11.8827938729       14.0865462172       10.2854418769
  C        12.4720410796       12.9105610236       10.9895844079
  C        11.7146106236       12.1776225205       11.9159613128
  C        12.2811332304       11.0951332449       12.5844045131
  C        13.6198140592       10.7210789657       12.3523153078
  C        14.3576455777       11.4363075441       11.3911436094
  C        13.7922800891       12.5175063956       10.7184391598
  C        14.2534585147        9.6243722421       13.1227712692
  C        14.2523921493        9.6444638741       14.5446183928
  C        13.7425370437       10.7534169654       15.2917013088
  C        22.5106408651        3.2450660264        21.742776892538
  C        23.2217636737        4.3533446495        21.043340574638
  C        24.2225439696        4.0788954427        20.099652154738
  C        24.8453552796        5.1221071917        19.419065829038
  C        24.4828191665        6.4620874901        19.661585622338
  C        23.5100438461        6.7281977052        20.642300236738
  C        22.8830142164        5.6868451967        21.321498078238
  C        25.0840375922        7.5712311001        18.885944782538
  C        25.0633131106        7.5591392269        17.464274345038
  C        24.3657792096        6.5560477088        16.718730902138
  C        38.2980736623       31.9268326709        21.841331554338
  C        37.5578792695       30.8372382558        21.140061136438
  C        36.5935456804       31.1421539578        20.166794089238
  C        35.9653608706       30.1229196803        19.455906809638
  C        36.2857644641       28.7718386153        19.694475632038
  C        37.2188253179       28.4744657736        20.705940559338
  C        37.8511000011       29.4925776436        21.416192384238
  C        35.6790970388       27.6818696842        18.894710074338
  C        35.7230801276       27.6955351885        17.472965437038
  C        36.4352491568       28.6972171629        16.740527180638
  C        25.6878608700        8.6274188929        16.743253397338
  C        25.6704455468        8.6529467006        19.555762052838
  C        38.3305025428       31.9604267150       10.1603459682
  C        37.6149857585       30.8869180425       10.9094518454
  C        36.6846421991       31.1950366053       11.9141658919
  C        36.0768404660       30.1769834902       12.6470137306
  C        36.3841368518       28.8237350169       12.3998005532
  C        37.2948621142       28.5256506345       11.3673240006
  C        37.9046181762       29.5401265286       10.6356603249
  C        35.7720376147       27.7238253250       13.1817217286
  C        35.7702925581       27.7173618980       14.6044204105
  C        36.4564860186       28.7086518273       15.3740258782
  C        46.1354552101       26.6207937511       15.2814612472
  C        46.0873919251       26.5799306096       12.4735660120
  C        22.4606643898        3.2557051273       10.2579477835
  C        23.1544568787        4.3644359748       10.9817846603
  C        24.1556330313        4.0780521492       11.9234548670
  C        24.7831632458        5.1078934664       12.6204283279
  C        24.4298125175        6.4538854083       12.3980082184
  C        23.4517915469        6.7335771504       11.4247766869
  C        22.8194638257        5.7039416068       10.7285906897
  C        25.0605509617        7.5522875842       13.1721241956
  C        25.0517571397        7.5485843147       14.5949518841
  C        24.3575115817        6.5527171647       15.3521295578
  C        26.6003626664       17.8973461977        21.773854295138
  C        25.2980462984       17.9536953749        21.044903698838
  C        25.0387996538       18.9545401333        20.095781990938
  C        23.8267262488       18.9758115612        19.408123526738
  C        22.8389471207       17.9995219348        19.648831619738
  C        23.0938031652       17.0221811894        20.629214960738
  C        24.3069657736       16.9957977949        21.314059332238
  C        21.5680618150       17.9811548881        18.882693499738
  C        21.5706093186       17.9597883621        17.460526427138
  C        22.7783224967       17.8476552488        16.701526167238
  C        34.4212030214       17.2173821988        21.904606404438
  C        35.7134353328       17.1536812499        21.161512606338
  C        35.9050213897       16.1940947557        20.155567236238
  C        37.0884861407       16.1700676949        19.422526300638
  C        38.1113073533       17.1061635320        19.672085987838
  C        37.9213670929       18.0458014589        20.703741023738
  C        36.7367426712       18.0737873263        21.435992721238
  C        39.3656857735       17.1096678837        18.884178725838
  C        39.3605030464       17.1207180898        17.461687456638
  C        38.1532114975       17.2450765387        16.704085094538
  C        20.3245683479       17.9654752702        16.751274500638
  C        20.3433216652       17.9733119178        19.564513810738
  C        34.4391229075       17.2377660684       10.1893000198
  C        35.7394705957       17.1396946342       10.9137142931
  C        35.9444583401       16.1626768986       11.8994174242
  C        37.1346977429       16.1336339462       12.6223681568
  C        38.1499072187       17.0799183634       12.3794581573
  C        37.9509033633       18.0296897192       11.3598268851
  C        36.7598375541       18.0642793904       10.6406533471
  C        39.3996755589       17.0960054621       13.1725185521
  C        39.3781340343       17.1129718785       14.5940650704
  C        38.1620711593       17.2386143908       15.3373970975
  C        35.1347449125       26.6378569639       15.3041493340
  C        35.1864867544       26.6526101830       12.4943494717
  C        26.5691796676       17.8307527125       10.3256520335
  C        25.2531559583       17.8829511607       11.0281835861
  C        24.9803285888       18.9062836594       11.9485043516
  C        23.7624479732       18.9365126827       12.6220522823
  C        22.7879712481       17.9438703797       12.3975623312
  C        23.0537346662       16.9460075959       11.4425230723
  C        24.2724999064       16.9135786471       10.7675497406
  C        21.5245384792       17.9297194281       13.1710119558
  C        21.5479628101       17.9327810285       14.5923572998
  C        22.7671722077       17.8348427440       15.3353575563
  C        14.0453541713       17.8295160854       10.2875049542
  C        15.3497015774       17.8888009448       11.0115577617
  C        15.6047207782       18.8944130976       11.9567995692
  C        16.8137103119       18.9181213190       12.6489146244
  C        17.8008179921       17.9391405874       12.4171033593
  C        17.5506090125       16.9575956756       11.4398050663
  C        16.3408802427       16.9293067579       10.7493257557
  C        19.0692220224       17.9269421700       13.1857256671
  C        19.0667073586       17.9292377077       14.6079356738
  C        17.8595585124       17.8244058724       15.3682833911
  C        46.8019153643       17.2172398583       10.1588315770
  C        45.5096022837       17.1492961812       10.9023034673
  C        45.3053921388       16.1681333057       11.8853189498
  C        44.1220707290       16.1415759443       12.6191948725
  C        43.1106270057       17.0960186783       12.3936646291
  C        43.3120466927       18.0565608319       11.3835744613
  C        44.4962075194       18.0870268508       10.6503427066
  C        41.8563617950       17.1004185266       13.1832445778
  C        41.8626223399       17.1020770722       14.6058911714
  C        43.0717234081       17.1978830530       15.3642505117
  C        20.3127484234       17.9518820748       15.3166998259
  C        20.2933419044       17.9080997372       12.5038597735
  C        46.7828197094       17.2312112449        21.877326670438
  C        45.4790115531       17.1238717914        21.161177710238
  C        45.2596324040       16.1228785679        20.202272519038
  C        44.0707210339       16.0926077186        19.476944121538
  C        43.0697605047       17.0602027344        19.692172504638
  C        43.2798243279       18.0312845027        20.689392319038
  C        44.4698076733       18.0678821430        21.410032549338
  C        41.8217499289       17.0790030756        18.895737090538
  C        41.8449057833       17.0900412011        17.474210075038
  C        43.0632699532       17.1892126335        16.731053251438
  C        46.1532412438       26.6372299564        16.716005525538
  C        46.1620255211       26.6559269963        19.525651595738
  C        14.0439581811       17.8323154588        21.698544610738
  C        15.3634535924       17.9101798719        21.006029522338
  C        15.6300358155       18.9276210583        20.077731507038
  C        16.8570453154       18.9708396913        19.420001249138
  C        17.8447465667       17.9961516486        19.665779456338
  C        17.5848203132       17.0070581762        20.631690777238
  C        16.3594096926       16.9630483994        21.292585319438
  C        19.1116880570       17.9804613636        18.896714532738
  C        19.0889442226       17.9554957780        17.475382319138
  C        17.8704316849       17.8357923617        16.734295715638
  C        28.8099479246       14.0933259044       10.3915483744
  C        28.1966820800       12.9175348650       11.0773090439
  C        28.9264689057       12.1604346374       12.0055461149
  C        28.3263612114       11.0862822801       12.6583155303
  C        26.9828441534       10.7439738645       12.4047237376
  C        26.2742760197       11.4801811054       11.4385544091
  C        26.8719807815       12.5553621353       10.7855260484
  C        26.3139638353        9.6642061294       13.1671379311
  C        26.3016194495        9.6920786129       14.5880445019
  C        26.8098452194       10.8040559731       15.3319497665
  C        32.1801782619       21.2373977434       10.1469034832
  C        32.7772085790       22.4013850112       10.8674845649
  C        32.0314675908       23.0788269894       11.8446019788
  C        32.6037697024       24.1175995518       12.5726585842
  C        33.9380631576       24.5079178519       12.3459464983
  C        34.6662259071       23.8490202995       11.3371452959
  C        34.0963052993       22.8048579840       10.6105537219
  C        34.5669291327       25.5821567267       13.1492535778
  C        34.5505118861       25.5530849296       14.5712826384
  C        34.0399354204       24.4365586946       15.3059462016
  C        25.6879473564        8.6175588683       15.3084398769
  C        25.6764144179        8.6136510383       12.4948202952
  C        32.0773221656       21.1968931132        21.863740416438
  C        32.6472926750       22.3565597229        21.117018003538
  C        31.9237578003       22.9908327768        20.095498150638
  C        32.4991826562       24.0312344881        19.367760336438
  C        33.8120734306       24.4656268487        19.639542689038
  C        34.5165726614       23.8427836143        20.688186952338
  C        33.9467089538       22.8000071024        21.412317325538
  C        34.4569399001       25.5494715531        18.861074628638
  C        34.4932470120       25.5366235751        17.438829147738
  C        34.0117192432       24.4287132371        16.672339584138
  C        40.6066688384       17.0899992000        16.751505549238
  C        40.5910186928       17.1050947120        19.561642249138
  C        28.7153872817       14.0946274340        21.809104350638
  C        28.0943091694       12.9537114170        21.070641176038
  C        28.8371477366       12.2394781596        20.117243950438
  C        28.2567088715       11.1840938945        19.418291135238
  C        26.9170871598       10.8118017674        19.649093869138
  C        26.1898010789       11.5138092922        20.628770421038
  C        26.7683026567       12.5725204751        21.328040696838
  C        26.2828492668        9.7147837164        18.877521926338
  C        26.2869813524        9.7182576361        17.455343096838
  C        26.7997163524       10.8179924741        16.697791642538
  C        18.1352576372        3.1807516094       10.3170977775
  C        17.4058338240        4.2780053454       11.0156742938
  C        16.3903188017        3.9996052454       11.9433950879
  C        15.7425498672        5.0395636977       12.6069055859
  C        16.0942465644        6.3833098921       12.3670670441
  C        17.0833832668        6.6528612129       11.4030548643
  C        17.7325226130        5.6155458168       10.7380044765
  C        15.4699346145        7.4910289911       13.1301032276
  C        15.4854067723        7.4904708497       14.5518176273
  C        16.1870120782        6.4968942112       15.3049959694
  C        42.9457463606       31.8594170261       10.0728399374
  C        43.6460281292       30.7717539512       10.8167788909
  C        44.5917553283       31.0930170672       11.8026910502
  C        45.1973823758       30.0874399233       12.5503596983
  C        44.8706966620       28.7344050943       12.3356688464
  C        43.9446523392       28.4201169043       11.3226395503
  C        43.3359159841       29.4252912016       10.5745780129
  C        45.4883212799       27.6551235727       13.1388510415
  C        45.4926761245       27.6808731994       14.5605392904
  C        44.8056719413       28.6889758519       15.3071618510
  C        14.8564538494        8.5629808210       15.2641758803
  C        14.8745424248        8.5627380853       12.4515093314
  C        42.9464507237       31.9614943098        21.798786536638
  C        43.6916118128       30.8854032394        21.085302106738
  C        44.6564326178       31.1912847561        20.113199719538
  C        45.2778856040       30.1716841171        19.395448009038
  C        44.9538083115       28.8213851848        19.632833469438
  C        44.0200073550       28.5237364647        20.643319448538
  C        43.3918018144       29.5405160572        21.355524190938
  C        45.5628733375       27.7239970476        18.847590509938
  C        45.5332905815       27.7173944506        17.426294226238
  C        44.8269966481       28.7076444144        16.673344577338
  C        35.1080382106       26.6281963302        16.739435358238
  C        35.0622883006       26.6093894367        19.549455139638
  C        18.1484801052        3.2467926301        21.696462791038
  C        17.4298353332        4.3436712727        20.987165345638
  C        16.4148066193        4.0523883919        20.063412891038
  C        15.7664754408        5.0830139222        19.388011272438
  C        16.1209366693        6.4282707520        19.610902673738
  C        17.1120923588        6.7116602857        20.568393888038
  C        17.7597697432        5.6827548023        21.248169420238
  C        15.4904858411        7.5239945333        18.838446129438
  C        15.4964801494        7.5074316830        17.417305627438
  C        16.1932745699        6.5057520518        16.670602272038
  H        10.6724123768       12.4661607239        19.893991038838
  H        11.6945229088       10.5513142553        18.652109919038
  H        15.3911487620       11.1678363292        20.762657888838
  H        14.3507353019       13.0707177563        22.007890805238
  H        13.3759827215       11.6310451482        17.191056568838
  H        50.3226477163       22.7488223243        19.977097422138
  H        49.3194084601       24.6231845681        18.670994328538
  H        45.6414843355       24.1604382273        20.852930903238
  H        46.6624172126       22.2896435430        22.161238290138
  H        47.6296152633       23.5758208643        17.235947046838
  H        14.8716803933        8.5880087839        20.598325809338
  H        50.2869732112       22.7030310726       12.0599144585
  H        49.2688672652       24.5758085819       13.3599938186
  H        45.6098423516       24.1084073774       11.1465284126
  H        46.6520009179       22.2532064035        9.8322693013
  H        47.6075744063       23.5517669645       14.7968243008
  H        40.6356490262       17.0746144861       11.4184038616
  H        48.6868862761       14.0950417588        23.789717841038
  H        10.6812274005       12.4669080295       12.0935486594
  H        11.6893428617       10.5249196987       13.2972497958
  H        15.3929343694       11.1580940176       11.2049065466
  H        14.3644924153       13.0866165237        9.9896065230
  H        13.3755976147       11.6219760752       14.7530520648
  H        47.9300007012       14.2183228341        9.7107890354
  H        47.7798640714       14.3734342017        22.484821779638
  H        49.0822858350       18.5519507507       10.8669558295
  H        10.4155587531       14.1344245215        7.9986349177
  H        24.4901650182        3.0418170799        19.909656479238
  H        25.6217395209        4.9088479104        18.687505257138
  H        23.2220511261        7.7594040441        20.835937495538
  H        22.1097773922        5.8828575479        22.060267745738
  H        23.8044552271        5.7997335575        17.259559532638
  H        36.3611182661       32.1858475796        19.968683482438
  H        35.2189228428       30.3648948286        18.702485242638
  H        37.4744261035       27.4346696196        20.899403590838
  H        38.5971148059       29.2684655715        22.175056945638
  H        36.9954813837       29.4476234890        17.290639943338
  H        25.6973756456        8.6415387575        20.643898542838
  H        36.4571098465       32.2390131971       12.1176786270
  H        35.3490062421       30.4232326860       13.4170019576
  H        37.5459779230       27.4857216615       11.1691621757
  H        38.6285715588       29.3129940064        9.8568596713
  H        37.0339863791       29.4674409638       14.8537292336
  H        46.1085704509       26.5871875450       11.3855247395
  H        44.6681272256       35.1160920050        23.803720265138
  H        24.4328689302        3.0396981069       12.0907268509
  H        25.5632860380        4.8785248351       13.3431921874
  H        23.1674993070        7.7681931871       11.2437964259
  H        22.0485523221        5.9171624611        9.9916736126
  H        23.7891373764        5.7945166775       14.8212497309
  H        44.9534853663       34.3901118368        9.6949937618
  H        44.9013568195       34.2067247158        22.480304859738
  H        40.6660766645       33.2086493961       10.8529467947
  H        23.1503295889        1.9576609426        8.0053212595
  H        25.7951638961       19.7143757964        19.913008047738
  H        23.6295650058       19.7582583436        18.678404486238
  H        22.3417904781       16.2601618683        20.823625947238
  H        24.5160427433       16.2283752825        22.055654624738
  H        23.7199875926       17.7415182791        17.232274970938
  H        35.1081672706       15.4819969957        19.954437754538
  H        37.2346838031       15.4176693726        18.650727057938
  H        38.7015842912       18.7779016968        20.901587903638
  H        36.5748713482       18.8146609891        22.215528366938
  H        37.2136822794       17.3764885428        17.233724462838
  H        20.3490751362       18.0130270972        20.652368706438
  H        35.1538903296       15.4423285455       12.0966803377
  H        37.2908349972       15.3730448850       13.3842517195
  H        38.7271645672       18.7670049811       11.1658467400
  H        36.5867272552       18.8163773866        9.8747270313
  H        37.2292813682       17.3636862365       14.7949610354
  H        35.1656020942       26.6793432918       11.4064979882
  H        28.5093474315       21.0787296236        23.957609812338
  H        25.7344777796       19.6716344422       12.1169455661
  H        23.5506050873       19.7336719701       13.3314301078
  H        22.3085792616       16.1736392387       11.2631869980
  H        24.4941055677       16.1318119566       10.0449123044
  H        23.7000922968       17.7188630073       14.7917472155
  H        29.0115703651       21.7176206696        9.7584772786
  H        29.1593995581       21.7399031192        22.607835137738
  H        32.0896988716       18.5463740977       10.9933009840
  H        27.3983141049       19.0749419641        8.0837187012
  H        14.8449503405       19.6524354211       12.1335137862
  H        17.0088094402       19.7036284024       13.3758383944
  H        18.3029614804       16.1940984433       11.2527858722
  H        16.1348187304       16.1586772931       10.0103267353
  H        16.9184231239       17.7013034846       14.8402733646
  H        46.0913896265       15.4391100904       12.0679351039
  H        43.9667794807       15.3724248673       13.3726132128
  H        42.5405113042       18.8023110035       11.2033610288
  H        44.6654528301       18.8437101787        9.8877324539
  H        44.0133867482       17.3100536356       14.8345021384
  H        20.2874898553       17.9303896666       11.4155621172
  H        46.0365896753       15.3823088175        20.026573513038
  H        43.9049909274       15.3150909861        18.734357282838
  H        42.5131012315       18.7834156805        20.863321160838
  H        44.6511613501       18.8369626210        22.156879533038
  H        43.9986669733       17.2935096179        17.273211862338
  H        46.1986396587       26.6823418291        20.613107167438
  H        52.7409811702       21.0626046273        8.1946062743
  H        14.8656780108       19.6781282158        19.888819826338
  H        17.0634767832       19.7626607183        18.703125259538
  H        18.3393731002       16.2481999126        20.828374706238
  H        16.1427248518       16.1869234138        22.022611073138
  H        16.9375178084       17.7214035964        17.278113561838
  H        52.3221775579       21.6733325864        22.284365375938
  H        52.0131922160       21.7021258329        9.4956401004
  H        49.0662911647       18.6074657055        21.194088543238
  H        13.2469385362       19.0167784782        23.966929330038
  H        29.9624716355       12.4283138382       12.2004106928
  H        28.8934622866       10.4986051543       13.3771061479
  H        25.2361987933       11.2251570202       11.2353452690
  H        26.3228898142       13.1452873645       10.0557217779
  H        27.1821910487       11.6668651438       14.7878785325
  H        31.0070521964       22.7649561821       12.0297150597
  H        32.0196269864       24.6407442319       13.3265833296
  H        35.6989590823       24.1396965314       11.1555463712
  H        34.6651970309       22.2715313915        9.8523756707
  H        33.6928701004       23.5654215245       14.7576762876
  H        25.7053936934        8.5939886335       11.4067992163
  H        30.9154667249       22.6483475545        19.873891825538
  H        31.9296630641       24.5225149235        18.581941893638
  H        35.5332670558       24.1638737220        20.905023291438
  H        34.4986020291       22.2984160561        22.203604020238
  H        33.6430951392       23.5507740325        17.195400839838
  H        40.5852693528       17.0690833089        20.649400998338
  H        32.5061179879       14.1526043644        8.2473381895
  H        29.8733680319       12.5211364400        19.944971313038
  H        28.8419742328       10.6265610310        18.690133590338
  H        25.1531979455       11.2397890176        20.814278818238
  H        26.2029850526       13.1284554671        22.072491656538
  H        27.1620930968       11.6924448074        17.230201153538
  H        33.3030836407       14.2206202734        22.443137508138
  H        33.4060278365       14.4084334578        9.5962714905
  H        32.1257109948       18.4855955320        21.146087485938
  H        30.2079884093       14.1863988195        8.0800951997
  H        16.1184023363        2.9630813798       12.1299165438
  H        14.9532188499        4.8201114168       13.3226769687
  H        17.3655595956        7.6857678614       11.2097448006
  H        18.5143417207        5.8181998754       10.0099247135
  H        16.7534929895        5.7394992108       14.7714924575
  H        44.8282313752       32.1400699983       11.9767620701
  H        45.9373764595       30.3411167541       13.3062030484
  H        43.6816807372       27.3780876932       11.1526989684
  H        42.5991394006       29.1899501392        9.8100673455
  H        44.2302331125       29.4366849691       14.7688675664
  H        14.8505505197        8.5458270939       11.3632957293
  H        44.9002083484       32.2339413162        19.921927273938
  H        46.0249612748       30.4128521996        18.642361422038
  H        43.7626799256       27.4840445183        20.834603052238
  H        42.6450166761       29.3176837011        22.113677534238
  H        44.2684518600       29.4705034076        17.207930042038
  H        35.0081989613       26.6239324438        20.636431206138
  H        36.6050546517       35.1338016674        8.1807368574
  H        16.1438446895        3.0127965491        19.893567451938
  H        14.9742373162        4.8561250078        18.677841404538
  H        17.3953317270        7.7471581219        20.745526418838
  H        18.5424014770        5.8931906853        21.973199512938
  H        16.7646493954        5.7554678371        17.209042573038
  H        36.2785167566       34.4821663198        22.263005067338
  H        36.3803469294       34.2092049275        9.4998865300
  H        40.5787334377       33.2012307437        21.143945463638
  H        17.4708537477        1.9465569247        23.963857234738
  H        28.9959527296       19.3088094598       12.5085822748
  H        28.7508121976       19.0803777257        19.744332515338
  H        30.9700600932       15.4444777402        19.778851295638
  H        31.3864511302       15.7074353488       12.5981507892
  H        28.3418728220       17.7405996798       14.8338391715
  H        30.0779015778       15.8940014475       14.9749895728
  H        32.0344788881       19.2094321865        17.348823515338
  H        29.2664482960       15.5761451887        17.287269212338
  H        33.5777708294       18.9067404178       16.1967819528
  H        18.8528793268        0.8687649933       12.3351438397
  H        40.5279461716       35.2290147088        19.941967582338
  H        42.3236205234       34.4184516032        19.580791480738
  H        22.0876635099        0.6918302031       12.3514032696
  H        11.5968792935       18.7128599077       12.3822583547
  H        52.2649095441       18.4309215264        19.667582848338
  H        49.2557245158       16.4766776652        19.573942891638
  H        10.1500637276       15.7982486456       12.2927898392
  H        50.8498828976       17.6924437142        19.944052736938
  H        10.0458783516       17.3946266855       12.0520002036
  H        20.2140565244        0.0020014398       12.0420526998
  H        39.1835066790       36.1243123544        19.676299486838
 Ni        29.9332030285       17.3256236269        18.824659231338
 Ni        31.8342582784       17.4012785867       15.659437501238
 Ni        30.0152598163       18.7424328275        16.323782885838