     568
 i =      185, E =     -4744.4280216308
  C        11.8587100482       14.0535630042        21.731425728338
  C        12.4562412871       12.8905790640        21.013127527238
  C        11.7045585524       12.1716995443        20.071430581338
  C        12.2809276334       11.1095025821        19.379051293938
  C        13.6214851781       10.7396821409        19.606823022738
  C        14.3546532539       11.4432216794        20.580309247438
  C        13.7817667495       12.5081945246        21.271833347538
  C        14.2610402985        9.6490349609        18.833412662338
  C        14.2563955114        9.6569556315        17.411707237638
  C        13.7432123835       10.7590726645        16.657801255838
  C        49.1267505029       21.2331537515        21.869497262438
  C        48.5499946409       22.4010895834        21.142389380838
  C        49.3001139999       23.0685477330        20.161553238738
  C        48.7332005733       24.1076975086        19.428352181838
  C        47.4026020582       24.5092222169        19.656838210738
  C        46.6715303981       23.8601769046        20.670151564938
  C        47.2339681513       22.8152615319        21.399508831938
  C        46.7724038449       25.5869530481        18.859559655238
  C        46.7614829622       25.5574157099        17.437792501538
  C        47.2614392361       24.4423326251        16.694299338338
  C        14.8603699766        8.5706327699        16.698443974438
  C        14.8918146528        8.5970788315        19.510054646138
  C        49.1131707951       21.2033490887       10.1454255944
  C        48.5278054227       22.3647214619       10.8725839204
  C        49.2671525460       23.0256291963       11.8652809736
  C        48.6908469357       24.0602089694       12.5967249297
  C        47.3603650632       24.4568410000       12.3586432939
  C        46.6398192559       23.8117386059       11.3353415866
  C        47.2133471320       22.7757966849       10.6035779424
  C        46.7219601879       25.5318496534       13.1496663839
  C        46.7337425650       25.5282578794       14.5713712136
  C        47.2491804677       24.4290416513       15.3277461432
  C        40.6215234524       17.0859380668       15.3089815300
  C        40.6297806257       17.1068609421       12.4992809342
  C        11.8829111696       14.0865514001       10.2854179873
  C        12.4722183849       12.9106555729       10.9896098227
  C        11.7147099958       12.1775274255       11.9157747401
  C        12.2812835995       11.0950904228       12.5842469919
  C        13.6200818233       10.7213153797       12.3523993390
  C        14.3580391887       11.4367946880       11.3915202991
  C        13.7926262967       12.5179525754       10.7187861737
  C        14.2536951295        9.6245767741       13.1228340876
  C        14.2525221824        9.6445878258       14.5446788593
  C        13.7426453128       10.7535350882       15.2917533556
  C        22.5109764594        3.2438182451        21.741776831138
  C        23.2245424848        4.3477551725        21.039029941738
  C        24.2194634992        4.0648049769        20.091562809738
  C        24.8474420470        5.1023049222        19.407423471138
  C        24.4960254083        6.4449156216        19.650622900138
  C        23.5284081521        6.7193491617        20.634309217338
  C        22.8958959671        5.6836215956        21.316976748138
  C        25.1055912895        7.5499371019        18.876032717338
  C        25.0830977055        7.5438443873        17.454323495438
  C        24.3817087644        6.5464598238        16.704879003738
  C        38.3024772752       31.9308565077        21.839069677738
  C        37.5719827166       30.8426479325        21.129333551638
  C        36.6117108339       31.1484512934        20.152912072538
  C        35.9932363718       30.1294727427        19.434130872238
  C        36.3206839860       28.7800794099        19.670513743138
  C        37.2514324834       28.4816916115        20.683349292938
  C        37.8738858003       29.4993816486        21.401103252438
  C        35.7169578196       27.6894687312        18.873412908238
  C        35.7462209989       27.7048002110        17.452126376038
  C        36.4508316921       28.7075575677        16.714208744138
  C        25.7103113847        8.6133311132        16.737296782938
  C        25.7020684615        8.6234092150        19.549750806038
  C        38.3284526520       31.9621462088       10.1559008657
  C        37.6060298667       30.8890487383       10.8969480796
  C        36.6745480559       31.1979044836       11.9000020566
  C        36.0635705681       30.1795310802       12.6289019832
  C        36.3700723264       28.8269551054       12.3785781772
  C        37.2789777410       28.5279957805       11.3451551279
  C        37.8918708406       29.5428687288       10.6173005047
  C        35.7620026632       27.7283738211       13.1633259294
  C        35.7692488252       27.7246709291       14.5853272941
  C        36.4612220376       28.7174795872       15.3477015641
  C        46.1357615569       26.6209131910       15.2815036734
  C        46.0879677850       26.5801762638       12.4736028668
  C        22.4633878274        3.2567429262       10.2571984267
  C        23.1626892803        4.3657516834       10.9767608017
  C        24.1703158773        4.0796803125       11.9118518679
  C        24.8028793303        5.1095368031       12.6046767108
  C        24.4484196960        6.4560407749       12.3860750835
  C        23.4641849556        6.7354739644       11.4189598165
  C        22.8272805730        5.7058386951       10.7262594874
  C        25.0810105678        7.5532991287       13.1618482158
  C        25.0711063573        7.5451494299       14.5848269104
  C        24.3743974487        6.5480600576       15.3382057832
  C        26.6263137574       17.8638410563        21.767844723538
  C        25.3168969235       17.9162112732        21.047902655338
  C        25.0621436005       18.9080269369        20.087584300838
  C        23.8477496053       18.9319255082        19.404128097738
  C        22.8514590534       17.9667550281        19.657090837938
  C        23.1024406013       16.9985394723        20.647921694938
  C        24.3182015909       16.9697779719        21.329826316438
  C        21.5784942229       17.9525850557        18.891787687038
  C        21.5788798049       17.9295305802        17.468990677438
  C        22.7846459341       17.8032562978        16.709405030938
  C        34.4422998623       17.1923019922        21.906389382438
  C        35.7374625869       17.1344021446        21.167419265538
  C        35.9418522230       16.1600029513        20.177905023038
  C        37.1212151720       16.1440779834        19.438749957138
  C        38.1289335552       17.1007447879        19.669433627538
  C        37.9285499951       18.0538479815        20.686199529938
  C        36.7461613394       18.0755943764        21.422437898038
  C        39.3806524680       17.1075948932        18.878432793138
  C        39.3714058876       17.1131294695        17.456440141338
  C        38.1615599104       17.2296106913        16.702143618038
  C        20.3326964322       17.9470675136        16.759223199438
  C        20.3527739392       17.9543872792        19.572749226438
  C        34.4406684080       17.2394360230       10.1867246015
  C        35.7405139309       17.1410761854       10.9121415454
  C        35.9478513013       16.1572154121       11.8902020866
  C        37.1384421968       16.1257834111       12.6123460943
  C        38.1499148836       17.0774721136       12.3767908418
  C        37.9481173138       18.0355484053       11.3657486493
  C        36.7572508776       18.0715577077       10.6465944377
  C        39.4003660378       17.0913296660       13.1682811209
  C        39.3817026638       17.1050787579       14.5896832440
  C        38.1664491972       17.2242015016       15.3354348864
  C        35.1384903324       26.6462423118       15.2902268995
  C        35.1751668858       26.6552464041       12.4811415475
  C        26.5774758200       17.8288325338       10.3260505862
  C        25.2632923801       17.8727318093       11.0360387361
  C        24.9995890845       18.8791959166       11.9776228641
  C        23.7814425266       18.9067495556       12.6514368094
  C        22.7969760884       17.9281722617       12.4069403139
  C        23.0557500770       16.9460065692       11.4337795473
  C        24.2746615548       16.9161866164       10.7585888594
  C        21.5320734981       17.9130177560       13.1783798978
  C        21.5549909439       17.9078613185       14.5999590222
  C        22.7726712077       17.7928123882       15.3432087927
  C        14.0475534288       17.8293190327       10.2889066622
  C        15.3526868914       17.8879799092       11.0139432149
  C        15.6094219424       18.8930508155       11.9597134410
  C        16.8186026602       18.9159938902       12.6524808756
  C        17.8061373156       17.9366643231       12.4222664344
  C        17.5541458635       16.9557933991       11.4442712628
  C        16.3444371752       16.9283807776       10.7528749870
  C        19.0753741512       17.9217425197       13.1920730708
  C        19.0735455103       17.9227625479       14.6148413712
  C        17.8662462607       17.8262062285       15.3759246962
  C        46.8022943254       17.2160985022       10.1565507907
  C        45.5085043895       17.1461226297       10.8961098910
  C        45.3022967543       16.1621757715       11.8756341748
  C        44.1181364371       16.1354307153       12.6076575176
  C        43.1091013704       17.0924193357       12.3831336580
  C        43.3117205167       18.0548171224       11.3753598188
  C        44.4968183058       18.0854883662       10.6440305053
  C        41.8563251608       17.0974550266       13.1738162919
  C        41.8661089999       17.0994585443       14.5960298686
  C        43.0770727767       17.1985160996       15.3509918799
  C        20.3199697883       17.9354424584       15.3241376744
  C        20.3003298315       17.9001763724       12.5108847111
  C        46.7858709471       17.2322962758        21.876196005738
  C        45.4855370478       17.1274835003        21.155255149538
  C        45.2712485719       16.1296476757        20.192153436138
  C        44.0848636706       16.1005226631        19.463311101738
  C        43.0828198766       17.0663837694        19.679878276538
  C        43.2886115493       18.0354762862        20.679729767238
  C        44.4759592932       18.0707749560        21.404067674038
  C        41.8351611504       17.0830598401        18.884830840938
  C        41.8555353404       17.0909158590        17.463538770938
  C        43.0721386077       17.1918608332        16.717782649538
  C        46.1535166880       26.6373332863        16.716055071938
  C        46.1624220606       26.6560420081        19.525702681138
  C        14.0458400800       17.8327681047        21.698948453538
  C        15.3671851199       17.9101905631        21.009103335338
  C        15.6385352393       18.9273950808        20.081789984438
  C        16.8675486904       18.9684865270        19.427168048138
  C        17.8530831009       17.9915146744        19.673903430138
  C        17.5885803349       17.0033169492        20.639657761938
  C        16.3615547491       16.9617544334        21.297866133938
  C        19.1206595313       17.9701461538        18.905044449238
  C        19.0971398327       17.9465696592        17.483404596738
  C        17.8778130646       17.8366892342        16.741975545638
  C        28.7984325096       14.1196192857       10.3972691212
  C        28.1949224268       12.9435977191       11.0900169503
  C        28.9238017481       12.2025865900       12.0317701902
  C        28.3325212348       11.1191672771       12.6778894763
  C        26.9977607327       10.7538323837       12.4084596665
  C        26.2903035124       11.4772896498       11.4315581087
  C        26.8797489887       12.5590793444       10.7825009699
  C        26.3335472535        9.6671697268       13.1656243976
  C        26.3201348128        9.6896184736       14.5868552898
  C        26.8250641008       10.7996301565       15.3360876635
  C        32.1826725653       21.2391804230       10.1410539427
  C        32.7787956397       22.4017302239       10.8641719564
  C        32.0267074922       23.0859790443       11.8314412129
  C        32.5963573987       24.1254524993       12.5603287918
  C        33.9336534381       24.5088793924       12.3421184081
  C        34.6689213564       23.8429095286       11.3436165275
  C        34.1015533493       22.7977138139       10.6169768127
  C        34.5599473858       25.5864122953       13.1417003917
  C        34.5479522766       25.5611806640       14.5633268261
  C        34.0362906366       24.4479876188       15.3024117985
  C        25.7081579462        8.6107902070       15.3025132291
  C        25.6977736713        8.6172715534       12.4891221673
  C        32.1030134841       21.2292538512        21.868621397138
  C        32.6901532198       22.3855879157        21.130365806738
  C        31.9532171166       23.0491261300        20.137163142138
  C        32.5329434791       24.0786249593        19.399598148138
  C        33.8633983786       24.4752735469        19.637827240538
  C        34.5826335656       23.8268698896        20.660076601938
  C        34.0078025183       22.7914761213        21.392448534138
  C        34.5029787859       25.5556148593        18.852002749938
  C        34.5176001516       25.5458717550        17.430061899838
  C        34.0206195999       24.4413296626        16.669048894138
  C        40.6158042204       17.0858905635        16.743744593938
  C        40.6063423593       17.1090600656        19.553788291838
  C        28.7400278934       14.0648169685        21.806713844638
  C        28.1351226747       12.9144564186        21.072032818438
  C        28.8785798526       12.2035419284        20.117272303238
  C        28.2978820095       11.1480394815        19.417999013738
  C        26.9588905370       10.7747495772        19.650643769338
  C        26.2331190718       11.4709398285        20.635326206738
  C        26.8112608809       12.5284553267        21.334768200938
  C        26.3184942847        9.6849055855        18.875220253038
  C        26.3145090243        9.6985862584        17.453459220038
  C        26.8213730702       10.8048289482        16.701904151838
  C        18.1353796354        3.1809938877       10.3171465129
  C        17.4060518468        4.2782271244       11.0157160513
  C        16.3906099791        3.9998214057       11.9435316650
  C        15.7428368075        5.0397760282       12.6070145335
  C        16.0944521305        6.3835373197       12.3670865815
  C        17.0835009302        6.6530922416       11.4029807876
  C        17.7326456006        5.6157771814       10.7379401259
  C        15.4701346862        7.4912307083       13.1301294123
  C        15.4855226302        7.4905874462       14.5518450948
  C        16.1871509154        6.4970273954       15.3050230197
  C        42.9459100896       31.8595046772       10.0729250131
  C        43.6462921237       30.7718854534       10.8168580179
  C        44.5918751033       31.0932183888       11.8028851340
  C        45.1976190389       30.0876768583       12.5505133808
  C        44.8711847992       28.7346014303       12.3356919226
  C        43.9453225632       28.4202519025       11.3225103335
  C        43.3364689876       29.4253857529       10.5744928946
  C        45.4888103493       27.6553284538       13.1388812584
  C        45.4930463428       27.6810264752       14.5605740098
  C        44.8059625129       28.6890713820       15.3072029099
  C        14.8565694157        8.5630867669       15.2642158111
  C        14.8748283535        8.5629968641       12.4515486359
  C        42.9464933610       31.9615350093        21.798791262838
  C        43.6917288367       30.8854594912        21.085331062638
  C        44.6563065615       31.1913759014        20.113004281938
  C        45.2778485004       30.1717987965        19.395296858638
  C        44.9541258393       28.8214581711        19.632928659838
  C        44.0206765632       28.5237874670        20.643745099138
  C        43.3923933012       29.5405404842        21.355918517838
  C        45.5631885868       27.7240888263        18.847662667738
  C        45.5335387598       27.7174785023        17.426358583638
  C        44.8272253700       28.7077050240        16.673389269638
  C        35.1249491766       26.6372523138        16.724968549238
  C        35.1141671062       26.6137839854        19.534813230438
  C        18.1486420693        3.2470443522        21.696477561338
  C        17.4300291935        4.3438981183        20.987243259038
  C        16.4149700888        4.0526098546        20.063506426838
  C        15.7666736733        5.0832284219        19.388087406638
  C        16.1211778540        6.4284862932        19.610947764938
  C        17.1123599829        6.7118824198        20.568411322238
  C        17.7600211057        5.6829829404        21.248208386838
  C        15.4907110251        7.5241757222        18.838473234438
  C        15.4966149677        7.5075459222        17.417337050138
  C        16.1934114781        6.5058745833        16.670628865438
  H        10.6724356566       12.4658581913        19.894412471938
  H        11.6946266068       10.5510277009        18.652515189938
  H        15.3916839610       11.1686228309        20.762038426138
  H        14.3512257288       13.0714539631        22.007246351838
  H        13.3761531946       11.6311708796        17.191125037938
  H        50.3228705452       22.7485987174        19.976924482838
  H        49.3197417431       24.6230658138        18.670887481338
  H        45.6419601406       24.1607839444        20.853161667238
  H        46.6628525030       22.2898806765        22.161430903938
  H        47.6299099120       23.5759261208        17.235985464838
  H        14.8721073015        8.5883133409        20.598361039338
  H        50.2872565890       22.7028807589       12.0600527825
  H        49.2693028356       24.5757778258       13.3601030735
  H        45.6103222464       24.1087840936       11.1464684956
  H        46.6523881214       22.2534604123        9.8322306411
  H        47.6079106296       23.5519037441       14.7968443964
  H        40.6321550849       17.0738227882       11.4114215412
  H        48.6870749221       14.0949760994        23.789787359838
  H        10.6812447474       12.4666359281       12.0931665643
  H        11.6894781148       10.5247286597       13.2969591026
  H        15.3934640872       11.1588872635       11.2055819020
  H        14.3649577208       13.0873108903        9.9902370594
  H        13.3757778725       11.6221272712       14.7531056073
  H        47.9300768596       14.2187611245        9.7107335585
  H        47.7800115715       14.3737960070        22.485092819538
  H        49.0826630983       18.5518430113       10.8670900680
  H        10.4158625526       14.1343816443        7.9987631616
  H        24.4785885338        3.0255122103        19.902149360038
  H        25.6197640503        4.8826368470        18.673474143838
  H        23.2495055939        7.7530197848        20.828087571538
  H        22.1269981278        5.8860528792        22.058585904438
  H        23.8178818142        5.7898214049        17.242699708638
  H        36.3751421054       32.1920750297        19.959614691038
  H        35.2479936483       30.3694340983        18.678954815538
  H        37.5113591867       27.4421806876        20.872230354538
  H        38.6181514504       29.2775515790        22.162226280138
  H        37.0152252478       29.4582477902        17.259691169938
  H        25.7323725499        8.6057819934        20.637699087438
  H        36.4502914633       32.2421010026       12.1058446871
  H        35.3357407244       30.4244380715       13.3992964024
  H        37.5273636835       27.4877954468       11.1450778770
  H        38.6161237604       29.3171062780        9.8384385656
  H        37.0346231819       29.4754162542       14.8218225055
  H        46.1092710908       26.5874807531       11.3855642274
  H        44.6682173878       35.1160976614        23.803695913338
  H        24.4485030531        3.0413469964       12.0778467022
  H        25.5870251887        4.8794057147       13.3228651660
  H        23.1779986744        7.7699769255       11.2402252230
  H        22.0517233498        5.9200265485        9.9944725109
  H        23.8046011561        5.7930439474       14.8043378767
  H        44.9534542465       34.3901143135        9.6950541296
  H        44.9014253886       34.2066636423        22.480404383738
  H        40.6658202268       33.2089176886       10.8530594949
  H        23.1506945575        1.9576664194        8.0050082966
  H        25.8289892941       19.6537055778        19.890764446838
  H        23.6560585737       19.7075928381        18.665742200738
  H        22.3456687028       16.2441623800        20.853462771038
  H        24.5217172221       16.2079179705        22.078724819738
  H        23.7250445006       17.6829209640        17.239440571538
  H        35.1579090950       15.4282429176        19.997491825338
  H        37.2782139451       15.3820010556        18.678534925038
  H        38.6988219429       18.8002243837        20.869191327938
  H        36.5747389073       18.8268551412        22.189940058138
  H        37.2235374763       17.3562067001        17.235262688738
  H        20.3584325509       17.9948274131        20.660614741938
  H        35.1582076038       15.4345700414       12.0825814847
  H        37.2975353950       15.3598153943       13.3681870120
  H        38.7218089305       18.7773365539       11.1787763034
  H        36.5810007026       18.8292583276        9.8869927041
  H        37.2318895563       17.3460141860       14.7953048840
  H        35.1502937498       26.6783853855       11.3933141593
  H        28.4972762845       21.0779736882        23.867662926038
  H        25.7612239651       19.6343195463       12.1596274930
  H        23.5762695201       19.6923843778       13.3754901616
  H        22.3043466601       16.1834314385       11.2390909181
  H        24.4894458644       16.1469167723       10.0206313422
  H        23.7039973127       17.6644641304       14.7998845223
  H        29.0046885603       21.7273580575        9.7369980938
  H        29.2018274212       21.7149136203        22.562186216338
  H        32.0769746466       18.5760683867       10.9216349994
  H        27.4048263358       19.0742226243        8.0687780194
  H        14.8507609223       19.6521623514       12.1367550312
  H        17.0131264425       19.7020522575       13.3789980231
  H        18.3055377417       16.1914163910       11.2568525922
  H        16.1392571236       16.1575937291       10.0137338888
  H        16.9238267035       17.7103300156       14.8485639677
  H        46.0875485523       15.4321606867       12.0573719313
  H        43.9604163767       15.3652573762       13.3595145773
  H        42.5410648681       18.8017410626       11.1963069325
  H        44.6686781146       18.8435804239        9.8834414944
  H        44.0170430992       17.3122086826       14.8185769149
  H        20.2950901551       17.9269260527       11.4226486771
  H        46.0497609652       15.3906029317        20.017135853938
  H        43.9213181810       15.3251634249        18.718031223438
  H        42.5204014475       18.7861564386        20.853218879038
  H        44.6551411764       18.8374078428        22.153914670038
  H        44.0084591479       17.2995090688        17.257684523838
  H        46.1991696081       26.6824988318        20.613153503438
  H        52.7411011638       21.0626090758        8.1946618436
  H        14.8763138562       19.6795842283        19.890749975238
  H        17.0768687906       19.7604122771        18.711233186538
  H        18.3408886156       16.2426699438        20.838054686438
  H        16.1422540187       16.1858919629        22.027371225838
  H        16.9440232554       17.7288114135        17.285551159438
  H        52.3222532974       21.6732087184        22.284189633038
  H        52.0131068761       21.7019346387        9.4956655285
  H        49.0675293154       18.6078675877        21.193915016938
  H        13.2474531960       19.0164887779        23.967254075538
  H        29.9519601627       12.4886301342       12.2421739648
  H        28.9004453182       10.5425264431       13.4048398083
  H        25.2587029353       11.2065145841       11.2160990471
  H        26.3313540510       13.1367278649       10.0424644518
  H        27.1909369644       11.6687053054       14.7978813663
  H        30.9987649175       22.7781160949       12.0063120125
  H        32.0082117957       24.6554832732       13.3063260410
  H        35.7041380933       24.1296550706       11.1702424998
  H        34.6742614320       22.2581015094        9.8661910193
  H        33.6805985855       23.5788625048       14.7564108599
  H        25.7278269407        8.6012584778       11.4010310182
  H        30.9284190188       22.7380593854        19.948622510038
  H        31.9550859766       24.5934493663        18.635107109938
  H        35.6123952379       24.1226342554        20.849769053938
  H        34.5689377086       22.2677211306        22.162855672538
  H        33.6529060132       23.5668773015        17.198375218238
  H        40.6029691407       17.0766992500        20.641639447538
  H        32.5120020102       14.1505270683        8.2477357093
  H        29.9139827500       12.4877888476        19.943236852838
  H        28.8811591585       10.5936549810        18.685905192138
  H        25.1973291918       11.1948754782        20.822064394338
  H        26.2472294650       13.0827149982        22.081268101938
  H        27.1831907945       11.6777737271        17.237399007938
  H        33.3002814868       14.1996077257        22.436465942738
  H        33.4046601755       14.4011147988        9.6044917825
  H        32.0966020970       18.5316761670        21.133504504138
  H        30.2263533682       14.1941556336        8.0720952493
  H        16.1187777777        2.9632947395       12.1301420280
  H        14.9535548130        4.8203470671       13.3228452643
  H        17.3656187133        7.6860002345       11.2095849392
  H        18.5144148709        5.8184684929       10.0098171693
  H        16.7537155706        5.7396891583       14.7715309084
  H        44.8281645162       32.1402983201       11.9770606763
  H        45.9375222779       30.3414230754       13.3064215414
  H        43.6826048583       27.3781837919       11.1524169212
  H        42.5998313987       29.1899920145        9.8098667752
  H        44.2305667049       29.4368096898       14.7689024004
  H        14.8509623640        8.5461966384       11.3633306676
  H        44.8998096636       32.2340559270        19.921513458338
  H        46.0247478607       30.4130224609        18.642054284738
  H        43.7637640144       27.4840535348        20.835354717438
  H        42.6459228198       29.3176834788        22.114372625638
  H        44.2686564644       29.4705608795        17.207951846338
  H        35.0735722375       26.6261583647        20.622345220838
  H        36.6050848080       35.1341457127        8.1805853985
  H        16.1439638498        3.0130247428        19.893705765538
  H        14.9744466617        4.8563601362        18.677899521338
  H        17.3956909383        7.7473711092        20.745460356838
  H        18.5427152593        5.8934554189        21.973161720738
  H        16.7648828214        5.7556571591        17.209060365438
  H        36.2785862811       34.4826502109        22.263056563338
  H        36.3807097079       34.2092582262        9.4996630904
  H        40.5802379795       33.2025913823        21.143467464738
  H        17.4708815387        1.9474730101        23.964038772438
  H        29.2502530602       19.5109726787       12.4888819942
  H        29.6373294029       19.5999705820        19.485176609338
  H        30.5603153802       15.5891302435        19.782729926538
  H        31.1818942891       15.6387794371       12.4595290548
  H        27.8567271863       17.9545031359       14.2945217213
  H        29.1682900794       15.5958373590       14.3875993484
  H        31.2934809624       19.6325497905        17.072536100138
  H        32.2509844116       16.1394548243        17.652184281638
  H        18.8536968415        0.8690630424       12.3353092819
  H        40.5278766748       35.2290851349        19.941855159638
  H        42.3238487856       34.4186362688        19.580492469238
  H        22.0879089165        0.6918481315       12.3516656606
  H        11.5969498442       18.7128324241       12.3824032684
  H        52.2650785457       18.4311141175        19.667414544338
  H        49.2553061663       16.4771133250        19.574372739938
  H        10.1500232446       15.7982618879       12.2929838933
  H        50.8501595892       17.6924199916        19.944044689938
  H        10.0459296482       17.3945708761       12.0519987449
  H        20.2149321258        0.0022433871       12.0419797764
  H        39.1835910091       36.1243594624        19.676091511138
 Ni        30.8233644348       17.7869410790        18.578333905838
 Ni        30.9036753340       16.6236527802       15.658990754038
 Ni        29.6338399870       18.6177057340       15.822082038038
 Ni        29.9723633157       17.4468793969       13.0736949028