     569
 i =      158, E =     -4729.5291648160
  C        11.8585962276       14.0533946974        21.731372480538
  C        12.4560270736       12.8904323520        21.013114135738
  C        11.7044671542       12.1717939104        20.071123320238
  C        12.2808254664       11.1095739504        19.378786287538
  C        13.6212696653       10.7394488466        19.606819365638
  C        14.3542648650       11.4426913752        20.580669583838
  C        13.7813902468       12.5076632596        21.272185470938
  C        14.2608133209        9.6488139839        18.833406769938
  C        14.2561366472        9.6567701876        17.411706499138
  C        13.7430598635       10.7589266037        16.657786184138
  C        49.1265432561       21.2334322616        21.869598417738
  C        48.5497144757       22.4012473467        21.142508943938
  C        49.2997226398       23.0684790660        20.161419307038
  C        48.7327820147       24.1075461223        19.428153554138
  C        47.4022764655       24.5092913759        19.656835505638
  C        46.6713633248       23.8605348322        20.670465815138
  C        47.2338162443       22.8156846989        21.399890633038
  C        46.7720680594       25.5869430685        18.859499429838
  C        46.7611857959       25.5573386542        17.437738156738
  C        47.2611562787       24.4422594699        16.694244527838
  C        14.8600941375        8.5704472937        16.698434987338
  C        14.8915803224        8.5968417036        19.510046275838
  C        49.1130463470       21.2035042880       10.1453778314
  C        48.5277373680       22.3648906044       10.8723935770
  C        49.2669193757       23.0254840186       11.8654390670
  C        48.6906036173       24.0600405314       12.5968830262
  C        47.3602377842       24.4569380273       12.3585450359
  C        46.6399096072       23.8121925528       11.3348508934
  C        47.2134385373       22.7762815700       10.6030682773
  C        46.7217780039       25.5318609525       13.1495933745
  C        46.7335167837       25.5281896793       14.5712949516
  C        47.2489432354       24.4289789176       15.3276905367
  C        40.6188572357       17.0739250702       15.3078432705
  C        40.6259077636       17.0962365150       12.4979101449
  C        11.8828417777       14.0863644574       10.2855109197
  C        12.4720308545       12.9104769174       10.9896147767
  C        11.7146597415       12.1776379235       11.9161431112
  C        12.2812034904       11.0951650258       12.5845526689
  C        13.6198621566       10.7210352774       12.3523644060
  C        14.3576098935       11.4361369669       11.3910281575
  C        13.7922305894       12.5173178155       10.7183289668
  C        14.2534942967        9.6243462644       13.1228119875
  C        14.2522743912        9.6443970319       14.5446529640
  C        13.7424970386       10.7533837760       15.2917404326
  C        22.5120322087        3.2437461158        21.743565342538
  C        23.2279983140        4.3480982264        21.044910135538
  C        24.2229452709        4.0663304673        20.097161143338
  C        24.8511338289        5.1049559494        19.415090109638
  C        24.4998538718        6.4470304347        19.661055612038
  C        23.5335210883        6.7202858644        20.646153047638
  C        22.9005692533        5.6834893215        21.326552343038
  C        25.1048677843        7.5530053732        18.884800605038
  C        25.0706140265        7.5483086687        17.463585098138
  C        24.3656663497        6.5500446209        16.718758103338
  C        38.2977109398       31.9276494208        21.841802151338
  C        37.5554754384       30.8393056294        21.140774138738
  C        36.5902290857       31.1470474189        20.169363306238
  C        35.9588910681       30.1298125557        19.458651520538
  C        36.2770796303       28.7780212802        19.695685390138
  C        37.2115018686       28.4777476247        20.705001709538
  C        37.8468668532       29.4940017775        21.415222144938
  C        35.6659045337       27.6904624104        18.896312987938
  C        35.7069338133       27.7050612280        17.474528457138
  C        36.4210649477       28.7050778222        16.741670942138
  C        25.6899152676        8.6197803655        16.743068398438
  C        25.7068289575        8.6253156976        19.554798701738
  C        38.3304707304       31.9602832431       10.1607513750
  C        37.6142571151       30.8869501277       10.9103525888
  C        36.6812253315       31.1960017394       11.9123332546
  C        36.0716946048       30.1788498372       12.6451078464
  C        36.3798492249       28.8251792399       12.4009883963
  C        37.2939091222       28.5260684191       11.3717146832
  C        37.9051990457       29.5397443077       10.6399028781
  C        35.7646648413       27.7267395239       13.1830600495
  C        35.7570834716       27.7238324698       14.6058309287
  C        36.4432727686       28.7153091087       15.3752364862
  C        46.1354583917       26.6207989341       15.2814258465
  C        46.0877653496       26.5801841176       12.4735356322
  C        22.4595191337        3.2554613056       10.2576985137
  C        23.1507027823        4.3645333753       10.9817264154
  C        24.1507481343        4.0794432070       11.9248830632
  C        24.7757447782        5.1104006263       12.6220147445
  C        24.4207384519        6.4556850770       12.3981400148
  C        23.4438371812        6.7340108085       11.4234864245
  C        22.8139984686        5.7033206740       10.7270358085
  C        25.0493849351        7.5544567132       13.1723230685
  C        25.0425138064        7.5485621966       14.5950278205
  C        24.3504129328        6.5512061038       15.3521460735
  C        26.5598046990       17.8229986568        21.778411096238
  C        25.2592438492       17.8853599595        21.051396361738
  C        25.0059308607       18.8977747489        20.113090018238
  C        23.7977001070       18.9264253698        19.420731144238
  C        22.8107277077       17.9467850407        19.647900163138
  C        23.0590340757       16.9582487508        20.618147684738
  C        24.2688588518       16.9239349053        21.307748688838
  C        21.5449939160       17.9392227611        18.876415931138
  C        21.5545089815       17.9284242598        17.454853674638
  C        22.7653443181       17.8111780999        16.702014271638
  C        34.4395397001       17.1906069122        21.909587349538
  C        35.7345999313       17.1397805563        21.167865074738
  C        35.9513815836       16.1518285728        20.194407425438
  C        37.1304256013       16.1370360314        19.454801239838
  C        38.1274677090       17.1082957200        19.669375673238
  C        37.9154896000       18.0762973513        20.669426972338
  C        36.7326050257       18.0967917896        21.405860658938
  C        39.3797366727       17.1119616143        18.878331772238
  C        39.3699101861       17.1056817332        17.456386658538
  C        38.1590583396       17.2103463049        16.702028080038
  C        20.3119681204       17.9488953320        16.740630226938
  C        20.3187581154       17.9343722249        19.553377001638
  C        34.4336155039       17.2386618076       10.1859480366
  C        35.7337731875       17.1394870055       10.9130805377
  C        35.9444451381       16.1474271574       11.8823331969
  C        37.1355708250       16.1117295120       12.6037570755
  C        38.1452673253       17.0674141555       12.3762660480
  C        37.9403870635       18.0338061694       11.3738170708
  C        36.7489231270       18.0737541975       10.6552512963
  C        39.3966147170       17.0778354080       13.1672913157
  C        39.3787032791       17.0886170652       14.5887836428
  C        38.1632588125       17.2011553088       15.3353469545
  C        35.1164656692       26.6475087968       15.3060176034
  C        35.1820633377       26.6533766775       12.4961949606
  C        26.5727198015       17.8263518254       10.3257698410
  C        25.2597390698       17.8731396887       11.0348970629
  C        24.9927748425       18.8889339807       11.9652184689
  C        23.7745588483       18.9193787096       12.6380685604
  C        22.7945212027       17.9351599133       12.4010371418
  C        23.0563802676       16.9430647272       11.4392865895
  C        24.2758348948       16.9097275707       10.7661323577
  C        21.5277934326       17.9245695379       13.1675885939
  C        21.5450001839       17.9194635124       14.5885396076
  C        22.7601954390       17.8063750858       15.3359504483
  C        14.0463704832       17.8322379270       10.2840494326
  C        15.3537649772       17.8974613260       11.0006275904
  C        15.6132069073       18.9107111352       11.9363533878
  C        16.8240664322       18.9372451954       12.6248428754
  C        17.8073791700       17.9532964660       12.3987065019
  C        17.5540605874       16.9659186475       11.4283473418
  C        16.3427182439       16.9350400315       10.7412019593
  C        19.0732815733       17.9372600944       13.1704704166
  C        19.0638813066       17.9345668848       14.5922978863
  C        17.8522617418       17.8354233853       15.3462269969
  C        46.8015635375       17.2157780051       10.1563231022
  C        45.5069355023       17.1442141934       10.8953628918
  C        45.3006361394       16.1581780212       11.8728111564
  C        44.1159587499       16.1288077917       12.6040834581
  C        43.1060440673       17.0852459280       12.3810411622
  C        43.3086843016       18.0498563133       11.3753515768
  C        44.4944019728       18.0830824177       10.6447543217
  C        41.8529274762       17.0876302911       13.1719050317
  C        41.8631541645       17.0894529087       14.5942543242
  C        43.0743211772       17.1909841220       15.3487205975
  C        20.3066222498       17.9443789035       15.3066552190
  C        20.2999902890       17.9138868792       12.4941157251
  C        46.7856818995       17.2328563494        21.875823265338
  C        45.4852204618       17.1297480149        21.154061796738
  C        45.2679328566       16.1296921521        20.193980529838
  C        44.0814731545       16.1019584848        19.465039826438
  C        43.0823351264       17.0716302497        19.678237687738
  C        43.2912058528       18.0434463571        20.674759547638
  C        44.4785097374       18.0770734945        21.399392666738
  C        41.8341721874       17.0877504359        18.883648208438
  C        41.8538004247       17.0882686762        17.462246202138
  C        43.0700325200       17.1873489337        16.715532959738
  C        46.1531906818       26.6372164878        16.715972411938
  C        46.1620832181       26.6560593830        19.525610802238
  C        14.0395263235       17.8287526294        21.696538302438
  C        15.3533782096       17.8989366453        20.996780313638
  C        15.6200436286       18.9180130619        20.070714250238
  C        16.8438037693       18.9560040160        19.407789274238
  C        17.8251104631       17.9738412388        19.647039599038
  C        17.5642444972       16.9812044099        20.608628426838
  C        16.3425792150       16.9428652742        21.275264530938
  C        19.0911331587       17.9559398533        18.879986298838
  C        19.0733413871       17.9431356345        17.458961289838
  C        17.8570005732       17.8385453679        16.712316035438
  C        28.8066471350       14.0873954938       10.3978110081
  C        28.1910422757       12.9161259499       11.0842267382
  C        28.9106578370       12.1741443320       12.0322799645
  C        28.3079191768       11.1006355127       12.6824742456
  C        26.9717136127       10.7454235578       12.4082714442
  C        26.2740439138       11.4670956908       11.4233177567
  C        26.8743943624       12.5411501323       10.7718265696
  C        26.3000728508        9.6674127552       13.1687335055
  C        26.2869655618        9.6952155167       14.5895652236
  C        26.7877920968       10.8098885670       15.3343956882
  C        32.1804688093       21.2367737339       10.1417676327
  C        32.7785475332       22.3987430012       10.8670407271
  C        32.0245184353       23.0883067603       11.8293428620
  C        32.5932534100       24.1283805277       12.5585980482
  C        33.9329829290       24.5086547832       12.3478576262
  C        34.6705453787       23.8374674150       11.3541622033
  C        34.1036575162       22.7920198044       10.6264309018
  C        34.5572503818       25.5860859074       13.1513423558
  C        34.5312063311       25.5629704949       14.5734190702
  C        34.0102048532       24.4518774089       15.3090730594
  C        25.6797851840        8.6164356635       15.3087410495
  C        25.6642702190        8.6163545263       12.4955112904
  C        32.0717827659       21.1940758404        21.861120400038
  C        32.6382515694       22.3622355473        21.121836842238
  C        31.9047056817       23.0097912177        20.115765264538
  C        32.4761247264       24.0526147063        19.387953399138
  C        33.7952213047       24.4773032763        19.644728455838
  C        34.5088366671       23.8439283489        20.680760627138
  C        33.9426064543       22.7987154152        21.404986049138
  C        34.4375069047       25.5619401148        18.864338485738
  C        34.4687189807       25.5510842132        17.441837800938
  C        33.9792311868       24.4467068989        16.675500471838
  C        40.6138236808       17.0781001648        16.742845952038
  C        40.6055641404       17.1192500316        19.553202298838
  C        28.7449385909       14.0659336302        21.802263382138
  C        28.1366560271       12.9187764255        21.065864113538
  C        28.8673923306       12.2323148773        20.084383100038
  C        28.2863339476       11.1750356956        19.388476950838
  C        26.9588271760       10.7789848266        19.648400458738
  C        26.2457872154       11.4533466272        20.657098379238
  C        26.8251627875       12.5107234259        21.355127083738
  C        26.3145116885        9.6898682238        18.876688065438
  C        26.2956249058        9.7067748001        17.455039457638
  C        26.7895490251       10.8168443089        16.700205500038
  C        18.1354300378        3.1808375663       10.3171854370
  C        17.4060739667        4.2781012368       11.0158481693
  C        16.3901957740        3.9997212369       11.9431648958
  C        15.7424123687        5.0396886457       12.6066461686
  C        16.0944640505        6.3833907115       12.3671334453
  C        17.0840678856        6.6529502529       11.4036197376
  C        17.7332063211        5.6156130327       10.7385905585
  C        15.4700498347        7.4910732311       13.1301529619
  C        15.4853333329        7.4904354116       14.5518659355
  C        16.1869150830        6.4968341914       15.3050274640
  C        42.9457312023       31.8595230164       10.0727975346
  C        43.6461097495       30.7718013716       10.8167580986
  C        44.5917305718       31.0931349407       11.8027267568
  C        45.1974441653       30.0875939107       12.5503951030
  C        44.8708924924       28.7345548393       12.3356286179
  C        43.9449583656       28.4201912739       11.3225317754
  C        43.3361396608       29.4253366303       10.5744885763
  C        45.4885195550       27.6552748493       13.1388106564
  C        45.4927118871       27.6809014965       14.5605038513
  C        44.8056219246       28.6889602179       15.3071076807
  C        14.8563212178        8.5629144668       15.2642112852
  C        14.8747140392        8.5627885840       12.4515467795
  C        42.9463338868       31.9616045408        21.798764185238
  C        43.6914914052       30.8854324536        21.085186633138
  C        44.6563135643       31.1913348332        20.113120640838
  C        45.2777993953       30.1717473747        19.395353137138
  C        44.9537565328       28.8214626804        19.632765629638
  C        44.0199676453       28.5237886156        20.643244751138
  C        43.3917443361       29.5405613356        21.355457087138
  C        45.5628319491       27.7240585036        18.847539496738
  C        45.5331859608       27.7173630762        17.426245051838
  C        44.8268910889       28.7076089536        16.673291608238
  C        35.0876976502       26.6398196320        16.741472097338
  C        35.0483717748       26.6189445864        19.551896680738
  C        18.1485361743        3.2468307420        21.696368889138
  C        17.4298940000        4.3436699662        20.987029948438
  C        16.4144929570        4.0523958691        20.063687562638
  C        15.7661486852        5.0830338441        19.388320474938
  C        16.1210106540        6.4282404162        19.610856886538
  C        17.1126369188        6.7116304744        20.567841576738
  C        17.7603454846        5.6827120451        21.247574305738
  C        15.4904483101        7.5239443002        18.838450124138
  C        15.4963495379        7.5073609622        17.417315419938
  C        16.1931294386        6.5056607233        16.670631439038
  H        10.6724461068       12.4661512089        19.893855741538
  H        11.6946213258       10.5512928454        18.652025629838
  H        15.3911676189       11.1678032681        20.762700712938
  H        14.3507361937       13.0705693852        22.007954748938
  H        13.3761351521       11.6310999830        17.191073212138
  H        50.3224051690       22.7483892933        19.976643258938
  H        49.3192411344       24.6227557053        18.670519403238
  H        45.6419220183       24.1614325500        20.853726239838
  H        46.6628250049       22.2905826930        22.162098910338
  H        47.6296545340       23.5758562218        17.235913339238
  H        14.8719322079        8.5880336812        20.598352901438
  H        50.2869145710       22.7025386067       12.0604428398
  H        49.2689487799       24.5754163413       13.3604746627
  H        45.6105665422       24.1095731704       11.1456671975
  H        46.6526339977       22.2542595281        9.8313976024
  H        47.6077343373       23.5518524225       14.7968147957
  H        40.6279497129       17.0656950651       11.4099622818
  H        48.6871157108       14.0949895666        23.789849244438
  H        10.6813207917       12.4669890766       12.0938519954
  H        11.6895128893       10.5250304173       13.2975390017
  H        15.3928849422       11.1579080198       11.2047312608
  H        14.3644625345       13.0863356476        9.9894416793
  H        13.3757576298       11.6220439016       14.7531219842
  H        47.9300988420       14.2184367439        9.7108039113
  H        47.7799147941       14.3735642867        22.485228420138
  H        49.0822292396       18.5518993752       10.8670723885
  H        10.4159680177       14.1343147264        7.9988834020
  H        24.4811647198        3.0272538760        19.905384340938
  H        25.6225662533        4.8868387155        18.679749519038
  H        23.2555726744        7.7538134651        20.842001071238
  H        22.1319410077        5.8845523803        22.068782003138
  H        23.8061291199        5.7927385165        17.260074177838
  H        36.3596048992       32.1914024022        19.972726571738
  H        35.2115338518       30.3738511280        18.706810387438
  H        37.4654191183       27.4372702762        20.896976579638
  H        38.5937217635       29.2679686399        22.172705641238
  H        36.9826346135       29.4547151011        17.291457859038
  H        25.7482097089        8.6052575331        20.642329322538
  H        36.4526820434       32.2401726884       12.1137255351
  H        35.3415672234       30.4262699862       13.4125538744
  H        37.5462013994       27.4859955641       11.1757577358
  H        38.6312886418       29.3115277082        9.8633824648
  H        37.0227958031       29.4724521720       14.8547947292
  H        46.1091382585       26.5876001695       11.3854991558
  H        44.6682711283       35.1161782029        23.803720968038
  H        24.4289448415        3.0414878361       12.0929073426
  H        25.5551270316        4.8829182071       13.3461354125
  H        23.1586021276        7.7682620776       11.2419649612
  H        22.0437945813        5.9148179716        9.9889249113
  H        23.7786126013        5.7953491032       14.8216366334
  H        44.9537164532       34.3903307662        9.6951958717
  H        44.9016473598       34.2066689275        22.480525383538
  H        40.6659327192       33.2089171960       10.8531602233
  H        23.1502720577        1.9578166081        8.0055085812
  H        25.7643781521       19.6586834005        19.943487069338
  H        23.6022781187       19.7157890766        18.698079358738
  H        22.3055452297       16.1944922541        20.799321989838
  H        24.4762495800       16.1479668825        22.040829355338
  H        23.7033379320       17.6916454865        17.236607740138
  H        35.1795278828       15.4044838728        20.027411911238
  H        37.2962108663       15.3635705799        18.708005088838
  H        38.6771856607       18.8343719405        20.840051422438
  H        36.5528457391       18.8588594379        22.160769558438
  H        37.2210248535       17.3314205883        17.236324792938
  H        20.3202591582       17.9655526937        20.641454737838
  H        35.1576623764       15.4193109081       12.0660284053
  H        37.2973340839       15.3384007493       13.3515871588
  H        38.7126646050       18.7784591150       11.1923670991
  H        36.5713614476       18.8370842273        9.9015362576
  H        37.2281783520       17.3150685894       14.7945403300
  H        35.1678094717       26.6758534664       11.4081359931
  H        28.4968889826       21.0768066008        23.865663587438
  H        25.7508744822       19.6498877231       12.1372198917
  H        23.5651060983       19.7112542792       13.3540342561
  H        22.3069695070       16.1766128891       11.2524538997
  H        24.4949025841       16.1336300214       10.0366794198
  H        23.6942512063       17.6829621442       14.7961379608
  H        29.0252449722       21.7126084067        9.7287151032
  H        29.2099785603       21.6884463091        22.545711034238
  H        32.0722002942       18.5774663283       10.9214377002
  H        27.3687736116       19.0264173907        8.0530233809
  H        14.8550426182       19.6712028500       12.1092729041
  H        17.0229440132       19.7272628983       13.3458503922
  H        18.3045792052       16.1995861460       11.2457013016
  H        16.1330411601       16.1596644723       10.0082474962
  H        16.9126333827       17.7229611911       14.8133069811
  H        46.0863625454       15.4284682434       12.0537530873
  H        43.9587742099       15.3569418197       13.3543384485
  H        42.5376887735       18.7966650597       11.1972241203
  H        44.6658760799       18.8430020604        9.8858731723
  H        44.0139858689       17.3043656191       14.8157039476
  H        20.2995811149       17.9402863322       11.4058933491
  H        46.0440699702       15.3875580986        20.021407133338
  H        43.9156088900       15.3244942874        18.722454381138
  H        42.5255499312       18.7973205847        20.845723617938
  H        44.6599249071       18.8455775665        22.146780614538
  H        44.0065265913       17.2969782259        17.254772683138
  H        46.1988312998       26.6826136870        20.613059216338
  H        52.7411570897       21.0626130134        8.1945921641
  H        14.8589883717       19.6735705431        19.889069221738
  H        17.0535623781       19.7492881996        18.693561033238
  H        18.3154193504       16.2171209852        20.797677979838
  H        16.1231855603       16.1658509060        22.003446907738
  H        16.9208989585       17.7281774806        17.251482427538
  H        52.3223848221       21.6736028312        22.284514287238
  H        52.0134953811       21.7024997400        9.4955066850
  H        49.0672100367       18.6082658235        21.194022955438
  H        13.2471163590       19.0166095650        23.965789096438
  H        29.9397785316       12.4537290991       12.2456668992
  H        28.8664915001       10.5242541078       13.4167461830
  H        25.2417167012       11.2019891024       11.2044468282
  H        26.3335825063       13.1202003484       10.0273903359
  H        27.1457176638       11.6806925845       14.7935092855
  H        30.9945507093       22.7849288972       12.0000695916
  H        32.0018083284       24.6612529910       13.2999512475
  H        35.7074938617       24.1203527717       11.1846300070
  H        34.6792812720       22.2504764538        9.8792026066
  H        33.6590825451       23.5821367867       14.7611643606
  H        25.6949522145        8.5961515901       11.4075481262
  H        30.8911972865       22.6740943222        19.907187938038
  H        31.8990271260       24.5540484304        18.614028126838
  H        35.5295700018       24.1588760783        20.887559738938
  H        34.5016955190       22.2896066867        22.186400526938
  H        33.6040706286       23.5726448726        17.200133674138
  H        40.6025999393       17.0951501975        20.641276825938
  H        32.5046325049       14.1461662238        8.2472315265
  H        29.8906446000       12.5423557186        19.885020925238
  H        28.8601258703       10.6379890361        18.636319490738
  H        25.2186126829       11.1602427360        20.864234965138
  H        26.2713575117       13.0477456731        22.121463832538
  H        27.1468129159       11.6934367267        17.232798274938
  H        33.3100822548       14.2423147061        22.459239775438
  H        33.4052408857       14.4136037357        9.5953689310
  H        32.0865515441       18.4077926164        21.111731092438
  H        30.1985700695       14.1447783427        8.0819398876
  H        16.1180549187        2.9632102653       12.1294168986
  H        14.9528270758        4.8202879716       13.3221517869
  H        17.3666679396        7.6858171004       11.2107103080
  H        18.5154117097        5.8182559728       10.0109210756
  H        16.7534790906        5.7395120345       14.7715087351
  H        44.8280659621       32.1402213463       11.9768218344
  H        45.9373806556       30.3413435962       13.3062727444
  H        43.6821426649       27.3781337263       11.1525269633
  H        42.5994469587       29.1900202907        9.8098857823
  H        44.2302801160       29.4367221978       14.7687788936
  H        14.8509538694        8.5459590140       11.3633279030
  H        44.9000403611       32.2340100679        19.921869214438
  H        46.0248611925       30.4129585809        18.642263826938
  H        43.7627036366       27.4840838090        20.834541380238
  H        42.6449807318       29.3177940814        22.113654316138
  H        44.2683939755       29.4704993166        17.207885509038
  H        34.9986833096       26.6319399973        20.639103007338
  H        36.6052968161       35.1339494474        8.1807104827
  H        16.1432871095        3.0128222707        19.894129173438
  H        14.9736781992        4.8561977367        18.678393683938
  H        17.3963758297        7.7470731549        20.744501623338
  H        18.5434568405        5.8931336344        21.972089420338
  H        16.7645674936        5.7554399529        17.209094969438
  H        36.2789262889       34.4820108570        22.263213898038
  H        36.3811152282       34.2089093506        9.4995864488
  H        40.5786346426       33.2014779477        21.143909507738
  H        17.4709667220        1.9471817465        23.963868028538
  H        29.2475334457       19.5508857609       12.5189715621
  H        28.6214600972       18.6597427462        19.797234303638
  H        31.9341217338       15.9506376864        19.519813102238
  H        31.0743464282       15.6196788381       12.4331826330
  H        27.9378192233       18.0541527226       14.2399618098
  H        29.2081991098       15.7819744502       14.5356215192
  H        32.3870244211       17.6898656523        17.360442005738
  H        18.8541184555        0.8691625313       12.3352779979
  H        40.5281223728       35.2289961488        19.941963603538
  H        42.3232928265       34.4183507942        19.580549423238
  H        22.0877774693        0.6926859062       12.3510234370
  H        11.5968578920       18.7126454258       12.3825896117
  H        52.2642022668       18.4312350593        19.667122716538
  H        49.2546222776       16.4767540134        19.574378757638
  H        10.1502218190       15.7982667970       12.2925899111
  H        50.8494379395       17.6925342293        19.943875373038
  H        10.0459448451       17.3946657632       12.0519441921
  H        20.2156686146        0.0024718927       12.0418408926
  H        39.1836502372       36.1243411155        19.676201393238
 Ni        30.4813158524       17.6423742968        18.656880441638
 Ni        31.0286907977       16.5403699232       15.821500414238
 Ni        29.3835841815       18.0844467037        16.240954847938
 Ni        29.9699079231       17.4508883029       13.0796547760
  O        10.6498392423       14.3651748026        21.475576852838