     573
 i =      183, E =     -4762.8445821964
  C        11.8586635146       14.0535603696        21.731366217838
  C        12.4561622460       12.8905946291        21.013074669738
  C        11.7045298492       12.1717846882        20.071280494938
  C        12.2809155211       11.1095951759        19.378907353438
  C        13.6214452832       10.7397076715        19.606757771338
  C        14.3545439026       11.4431614502        20.580361143138
  C        13.7816476754       12.5081208132        21.271882625738
  C        14.2610111359        9.6490570586        18.833373182338
  C        14.2564396161        9.6570212219        17.411671912238
  C        13.7433368688       10.7591697730        16.657754217538
  C        49.1267907919       21.2332002133        21.869521911638
  C        48.5500704207       22.4011426347        21.142457726638
  C        49.3001270940       23.0684784101        20.161483182038
  C        48.7332077425       24.1076205086        19.428280858438
  C        47.4026437612       24.5092450909        19.656836936138
  C        46.6716682646       23.8603543386        20.670328743138
  C        47.2341031284       22.8154474628        21.399694052838
  C        46.7724396744       25.5869788526        18.859567962638
  C        46.7615103056       25.5574223897        17.437800691838
  C        47.2614594390       24.4423451262        16.694293889138
  C        14.8603988867        8.5706804471        16.698426319938
  C        14.8917137033        8.5970689756        19.510036997438
  C        49.1131735214       21.2034318955       10.1453583323
  C        48.5278236758       22.3648025412       10.8724755828
  C        49.2670681313       23.0255479110       11.8653689799
  C        48.6907463670       24.0601108809       12.5968184854
  C        47.3603111602       24.4568613462       12.3586250592
  C        46.6398780736       23.8119227120       11.3351322485
  C        47.2134242650       22.7760042745       10.6033553983
  C        46.7218814524       25.5318447730       13.1496562061
  C        46.7337152554       25.5282547093       14.5713624228
  C        47.2491697593       24.4290498418       15.3277414738
  C        40.6199429158       17.0859018523       15.3094047983
  C        40.6298290459       17.1006798949       12.4996113441
  C        11.8829629285       14.0865890667       10.2855158825
  C        12.4723272565       12.9107991262       10.9897627419
  C        11.7148428710       12.1775636065       11.9158694015
  C        12.2814666686       11.0951064441       12.5842619343
  C        13.6202922979       10.7214104345       12.3524135333
  C        14.3582406239       11.4370244783       11.3916301356
  C        13.7927775044       12.5181943653       10.7189690076
  C        14.2539318380        9.6246666406       13.1228133016
  C        14.2526825435        9.6446678548       14.5446515160
  C        13.7428457707       10.7536473428       15.2917077400
  C        22.5114510132        3.2453372265        21.742262292938
  C        23.2236614630        4.3530043407        21.042379034638
  C        24.2191537430        4.0773103735        20.093310211238
  C        24.8421836812        5.1196965502        19.411384987538
  C        24.4857142480        6.4605911447        19.657925167438
  C        23.5188378582        6.7278076681        20.644317940438
  C        22.8912417716        5.6872898160        21.324575777238
  C        25.0855683303        7.5700406795        18.880828966838
  C        25.0530826514        7.5635647212        17.459171303838
  C        24.3520917506        6.5622273161        16.714610562138
  C        38.2982113587       31.9280090985        21.841559914738
  C        37.5567675466       30.8400757291        21.139775662538
  C        36.5920864553       31.1484676232        20.168072539638
  C        35.9609791212       30.1316170643        19.456819921638
  C        36.2791163090       28.7798516766        19.693746407838
  C        37.2133067976       28.4789166815        20.703038997438
  C        37.8484557803       29.4947787771        21.413796458938
  C        35.6674895983       27.6927698260        18.894696175838
  C        35.7066211071       27.7078854735        17.472995102338
  C        36.4214640098       28.7072414133        16.740053807738
  C        25.6706714518        8.6353190846        16.737198719938
  C        25.6827584316        8.6467183686        19.549041380338
  C        38.3304335840       31.9607306489       10.1603521521
  C        37.6136476044       30.8881876411       10.9098158142
  C        36.6823608112       31.1985978810       11.9129479615
  C        36.0719091367       30.1822169937       12.6457744639
  C        36.3774773896       28.8282702904       12.4002696271
  C        37.2898067238       28.5278478019       11.3698922133
  C        37.9020982204       29.5407733746       10.6380295064
  C        35.7611582233       27.7307182857       13.1821740590
  C        35.7544653020       27.7272951725       14.6047964765
  C        36.4429463465       28.7174778980       15.3736717545
  C        46.1357010539       26.6208825525       15.2815088586
  C        46.0877976813       26.5801361807       12.4736123453
  C        22.4591405932        3.2554369167       10.2572812342
  C        23.1494073930        4.3656195091       10.9806629009
  C        24.1493444029        4.0825980568       11.9244359831
  C        24.7730008621        5.1151683912       12.6204941524
  C        24.4166198343        6.4596541145       12.3944497146
  C        23.4398270557        6.7359396646       11.4192183951
  C        22.8113062763        5.7036667315       10.7240470088
  C        25.0428874135        7.5604745194       13.1675900768
  C        25.0317553078        7.5578809351       14.5901986849
  C        24.3398398591        6.5608212565       15.3479085059
  C        26.6167616972       17.8576264292        21.771860709138
  C        25.3120387397       17.9011003448        21.045842789038
  C        25.0490777750       18.8960157100        20.090692923638
  C        23.8366708980       18.9102343260        19.403914659638
  C        22.8495028421       17.9347445916        19.651843420738
  C        23.1082744567       16.9629773294        20.637050769738
  C        24.3232137167       16.9417220480        21.319972943938
  C        21.5762712622       17.9180039034        18.887941437038
  C        21.5777442189       17.8943442545        17.465557791738
  C        22.7833804228       17.7620827317        16.706529194238
  C        34.4358903041       17.1934056954        21.906970608638
  C        35.7288406488       17.1418089794        21.162749727038
  C        35.9372144132       16.1658716713        20.175394247738
  C        37.1174669157       16.1512200216        19.437391604138
  C        38.1230619877       17.1104739723        19.667033156138
  C        37.9180463365       18.0665567805        20.680017879638
  C        36.7346238322       18.0870597550        21.414982067538
  C        39.3765195617       17.1159796704        18.878153328538
  C        39.3686836996       17.1187787975        17.456156485738
  C        38.1596300714       17.2354057736        16.700689407838
  C        20.3315393322       17.9174230004        16.756454098838
  C        20.3514046677       17.9242298595        19.570033854338
  C        34.4384405932       17.2368367180       10.1894624382
  C        35.7389576174       17.1361301132       10.9124254015
  C        35.9442844455       16.1551286930       11.8940419551
  C        37.1353615252       16.1232143114       12.6154651270
  C        38.1496044052       17.0711632401       12.3756817023
  C        37.9501502322       18.0249015359       11.3599455631
  C        36.7588342981       18.0618142891       10.6416218067
  C        39.3998354453       17.0865064515       13.1677620475
  C        39.3805714623       17.1042214389       14.5891943750
  C        38.1651672960       17.2269716636       15.3340695700
  C        35.1127552438       26.6516860040       15.3049759880
  C        35.1761408948       26.6590673407       12.4953257918
  C        26.5741838243       17.8263457075       10.3263478875
  C        25.2606580639       17.8690341416       11.0343921166
  C        25.0006194632       18.8647306304       11.9880360998
  C        23.7823063622       18.8879696404       12.6610248552
  C        22.7952673346       17.9151784350       12.4046461118
  C        23.0506235807       16.9437960266       11.4198458385
  C        24.2694364823       16.9185264002       10.7449470899
  C        21.5309784203       17.8948925921       13.1762392381
  C        21.5540686809       17.8800817523       14.5977598915
  C        22.7713270622       17.7547034005       15.3402218690
  C        14.0471342137       17.8289758691       10.2887071056
  C        15.3522099133       17.8859839735       11.0133134303
  C        15.6097843842       18.8884540114       11.9614971827
  C        16.8192009381       18.9084940624       12.6538909408
  C        17.8055569721       17.9288237319       12.4204896789
  C        17.5528919559       16.9509550682       11.4397649853
  C        16.3429886138       16.9263056977       10.7490083045
  C        19.0745356776       17.9091235549       13.1900012788
  C        19.0725560424       17.9037243361       14.6125662886
  C        17.8649501270       17.8080265348       15.3732816133
  C        46.8022604527       17.2161367178       10.1568902771
  C        45.5086474212       17.1457178005       10.8972072038
  C        45.3033557068       16.1614296855       11.8766351835
  C        44.1192795047       16.1333151512       12.6088758955
  C        43.1092602498       17.0892931792       12.3846194556
  C        43.3111076230       18.0522946348       11.3772397850
  C        44.4961287765       18.0843176795       10.6457155513
  C        41.8560244857       17.0933109942       13.1749029281
  C        41.8649856520       17.0974035672       14.5971978264
  C        43.0754984685       17.1963471283       15.3529655595
  C        20.3189592904       17.9093447217       15.3216671071
  C        20.2992785047       17.8888541541       12.5086664873
  C        46.7851680431       17.2325352963        21.876076234638
  C        45.4839092842       17.1286592982        21.155658135738
  C        45.2662573660       16.1292550001        20.194919492238
  C        44.0790288083       16.1012102334        19.467112186138
  C        43.0791775861       17.0698559031        19.681909984538
  C        43.2882351756       18.0406008520        20.679496986438
  C        44.4763385034       18.0746444418        21.402914040638
  C        41.8312890411       17.0879272501        18.886535660438
  C        41.8525473832       17.0934412635        17.465104254938
  C        43.0696981070       17.1915878087        16.719799051838
  C        46.1535108618       26.6373199230        16.716061189938
  C        46.1624274300       26.6560608820        19.525712589838
  C        14.0452433857       17.8309604974        21.698088601738
  C        15.3660306774       17.9031325819        21.006761747938
  C        15.6414360129       18.9182698184        20.078482269838
  C        16.8705472726       18.9533543253        19.423594969938
  C        17.8518291690       17.9722459481        19.670971783438
  C        17.5831243055       16.9858498099        20.637307262038
  C        16.3562097568       16.9503745298        21.295836719438
  C        19.1193181043       17.9446690368        18.902382305238
  C        19.0961093845       17.9210559001        17.480810686938
  C        17.8764173946       17.8157516785        16.739346799138
  C        28.8068853076       14.0904020651       10.3917530106
  C        28.1895755917       12.9198766364       11.0786137317
  C        28.9040785707       12.1832917440       12.0347033591
  C        28.2987961430       11.1107239975       12.6843144204
  C        26.9652821984       10.7517760956       12.4019783951
  C        26.2727067896       11.4688556236       11.4101295004
  C        26.8755696502       12.5416601870       10.7589091873
  C        26.2907503630        9.6751292161       13.1619856198
  C        26.2713233156        9.7070913739       14.5824713276
  C        26.7667974626       10.8254672511       15.3248738015
  C        32.1805574165       21.2398404763       10.1458025933
  C        32.7739888195       22.4071457308       10.8644236572
  C        32.0212423043       23.0895464721       11.8327580525
  C        32.5886635702       24.1301141077       12.5619665316
  C        33.9256580234       24.5167455226       12.3458217269
  C        34.6611219180       23.8532484211       11.3453219163
  C        34.0956258334       22.8077234294       10.6171009416
  C        34.5503702900       25.5924541083       13.1504563947
  C        34.5257270695       25.5679309816       14.5726038930
  C        34.0056658230       24.4563822590       15.3084341817
  C        25.6645850887        8.6288234486       15.3029161578
  C        25.6589816985        8.6210404071       12.4897225734
  C        32.0801710657       21.2023903809        21.869187406038
  C        32.6461401614       22.3685809323        21.128837255138
  C        31.9085016993       23.0189058934        20.127644707538
  C        32.4786136206       24.0591413827        19.395670172138
  C        33.8002594775       24.4795660101        19.645360345338
  C        34.5183427543       23.8438189524        20.676813633038
  C        33.9536724053       22.7998426084        21.403991180038
  C        34.4399454431       25.5642985554        18.863408427138
  C        34.4674664957       25.5544050503        17.440915629838
  C        33.9764340263       24.4504267798        16.674989479138
  C        40.6133830165       17.0887651578        16.744280314238
  C        40.6017897554       17.1170956522        19.554577628438
  C        28.7423851847       14.0734081467        21.804070615938
  C        28.1224489683       12.9390237139        21.055118282438
  C        28.8466027567       12.2529673883        20.067960522238
  C        28.2597634881       11.1991847134        19.371012561638
  C        26.9326462821       10.8040725824        19.636164248138
  C        26.2242880090       11.4816461812        20.646174203238
  C        26.8091016096       12.5363464422        21.344402005438
  C        26.2881697447        9.7117504743        18.868825363838
  C        26.2723935376        9.7254672171        17.447335723438
  C        26.7654657721       10.8342441837        16.690211558838
  C        18.1353779454        3.1808540844       10.3171531640
  C        17.4061113343        4.2781301056       11.0158251437
  C        16.3904206462        3.9998191515       11.9433830807
  C        15.7427172835        5.0398428212       12.6068502960
  C        16.0946291805        6.3835565276       12.3671257603
  C        17.0839858365        6.6530218342       11.4033185195
  C        17.7330427104        5.6156428501       10.7382883484
  C        15.4703323420        7.4913026808       13.1301379750
  C        15.4856255356        7.4906450142       14.5518498452
  C        16.1871723094        6.4970391869       15.3050402071
  C        42.9457829148       31.8594628120       10.0728590375
  C        43.6461177216       30.7718089807       10.8168332885
  C        44.5917919993       31.0931315148       11.8027746636
  C        45.1975126329       30.0875907364       12.5504285102
  C        44.8709486844       28.7345336040       12.3357180644
  C        43.9449470929       28.4201902979       11.3226650877
  C        43.3361164173       29.4253271918       10.5746226657
  C        45.4886178702       27.6552670079       13.1388996610
  C        45.4929326937       27.6809773397       14.5605943207
  C        44.8058759600       28.6890337207       15.3072315658
  C        14.8566917708        8.5631636655       15.2642029190
  C        14.8750578840        8.5630731224       12.4515342520
  C        42.9464345572       31.9615645705        21.798776214638
  C        43.6916709702       30.8854619921        21.085304217138
  C        44.6564146302       31.1913714203        20.113142657638
  C        45.2779584780       30.1717932558        19.395428382138
  C        44.9540872448       28.8214700174        19.632941042838
  C        44.0204186838       28.5237985115        20.643547135038
  C        43.3921273414       29.5405574331        21.355717246238
  C        45.5631652127       27.7240903452        18.847673285538
  C        45.5335166067       27.7174542086        17.426368587638
  C        44.8271938202       28.7076865156        16.673416572238
  C        35.0855734967       26.6434714655        16.740329012538
  C        35.0516399817       26.6207532859        19.550710676738
  C        18.1484808747        3.2469020706        21.696364959638
  C        17.4298236615        4.3437610071        20.987143616338
  C        16.4146880332        4.0525285084        20.063482802638
  C        15.7664022461        5.0831936934        19.388110967538
  C        16.1210439996        6.4284233073        19.610904085038
  C        17.1123309081        6.7117632510        20.568270558638
  C        17.7599739267        5.6828214570        21.248020348538
  C        15.4905904292        7.5241519773        18.838464041838
  C        15.4965859878        7.5075677697        17.417329284138
  C        16.1933566553        6.5058608817        16.670644359338
  H        10.6724278472       12.4659756042        19.894193139638
  H        11.6946618152       10.5511834537        18.652284874938
  H        15.3915428590       11.1684972471        20.762163809838
  H        14.3510534826       13.0712780592        22.007410993138
  H        13.3763249103       11.6312971564        17.191061850338
  H        50.3228447912       22.7484598275        19.976765390838
  H        49.3197035664       24.6228789911        18.670707046938
  H        45.6421442033       24.1610629435        20.853433730538
  H        46.6630396530       22.2902101125        22.161753410038
  H        47.6299511186       23.5759354326        17.235957908938
  H        14.8719485714        8.5882742186        20.598341952238
  H        50.2871197172       22.7027128695       12.0602701175
  H        49.2691453995       24.5755725490       13.3603117630
  H        45.6104399069       24.1090871548       11.1461269165
  H        46.6525296210       22.2538091284        9.8318667435
  H        47.6079075317       23.5519126066       14.7968474412
  H        40.6331505358       17.0653735343       11.4118232205
  H        48.6870739684       14.0950159237        23.789793558938
  H        10.6813521213       12.4665798730       12.0932589427
  H        11.6896864957       10.5246518211       13.2969210458
  H        15.3936949023       11.1592089876       11.2057229660
  H        14.3651125548       13.0876427831        9.9904997316
  H        13.3760605328       11.6222692252       14.7530539852
  H        47.9300982842       14.2186088029        9.7107652478
  H        47.7799438740       14.3736652135        22.485090176338
  H        49.0827332028       18.5519659750       10.8670372179
  H        10.4159066609       14.1343908779        7.9988023076
  H        24.4824202212        3.0397462467        19.899894263938
  H        25.6138993544        4.9048568616        18.675347085138
  H        23.2355254018        7.7596129409        20.841649618238
  H        22.1223755740        5.8848992938        22.067500842738
  H        23.7933100309        5.8045585642        17.256191836338
  H        36.3617525065       32.1929539307        19.971869132138
  H        35.2138446345       30.3757833183        18.704811611038
  H        37.4670639224       27.4383049682        20.894477287538
  H        38.5951712763       29.2685528055        22.171348168938
  H        36.9846392624       29.4557694063        17.289683919338
  H        25.7234026992        8.6289856771        20.636681007738
  H        36.4561767755       32.2431062616       12.1151732607
  H        35.3432072694       30.4303092983       13.4143433376
  H        37.5399189292       27.4873822250       11.1732456854
  H        38.6269635838       29.3118622811        9.8605778527
  H        37.0235816552       29.4734876817       14.8528576091
  H        46.1090516721       26.5874647336       11.3855732356
  H        44.6681847308       35.1161522201        23.803734817338
  H        24.4284179011        3.0451045516       12.0939239913
  H        25.5522766491        4.8895212688       13.3453142239
  H        23.1536349845        7.7696837764       11.2363420657
  H        22.0410733417        5.9132038965        9.9854249907
  H        23.7708399502        5.8026813278       14.8175950652
  H        44.9536530970       34.3902972417        9.6951416804
  H        44.9016061293       34.2067786617        22.480356525638
  H        40.6660283171       33.2088563680       10.8530691650
  H        23.1502109586        1.9578461288        8.0050379355
  H        25.8044199708       19.6558216927        19.903253593238
  H        23.6381335802       19.6869171424        18.668461323138
  H        22.3578257592       16.2010015653        20.837629777638
  H        24.5336596051       16.1776978030        22.064747172538
  H        23.7235904492       17.6327398723        17.235099342438
  H        35.1572568383       15.4298127167        19.995750308538
  H        37.2771068897       15.3869989656        18.679841224838
  H        38.6858301683       18.8157992212        20.861857503438
  H        36.5605639075       18.8401070000        22.180137853338
  H        37.2219769025       17.3643911600        17.233687514438
  H        20.3576933370       17.9655420811        20.657860725538
  H        35.1528362296       15.4353232620       12.0899807783
  H        37.2925799905       15.3596083049       13.3741120701
  H        38.7260313752       18.7633249479       11.1688129669
  H        36.5849784578       18.8168423972        9.8788093333
  H        37.2314317834       17.3491432229       14.7927145352
  H        35.1608609895       26.6821712850       11.4073111431
  H        28.5092188333       21.0840446082        23.959319325838
  H        25.7661945950       19.6119685647       12.1841440718
  H        23.5799778045       19.6643975835       13.3956281415
  H        22.2972976800       16.1854191510       11.2165931339
  H        24.4826391292       16.1567704302        9.9988853629
  H        23.7022304376       17.6204520893       14.7974164831
  H        29.0090619589       21.7200617312        9.7588578580
  H        29.1438503131       21.7504795246        22.602230282838
  H        32.0759496051       18.5608921489       10.9972253718
  H        27.4081771675       19.0809937209        8.0862641350
  H        14.8516526861       19.6475697739       12.1407876512
  H        17.0147435819       19.6922030869       13.3826626777
  H        18.3037834237       16.1866289775       11.2501973238
  H        16.1366746194       16.1577568482       10.0078970252
  H        16.9222791865       17.6958595694       14.8455646685
  H        46.0892580193       15.4320403003       12.0580882892
  H        43.9625033751       15.3626913528       13.3604840853
  H        42.5398132603       18.7986394329       11.1985194426
  H        44.6670962903       18.8428234398        9.8853243042
  H        44.0159937249       17.3080278173       14.8210559483
  H        20.2940796355       17.9223902603       11.4206315433
  H        46.0428293003       15.3879619499        20.020644556438
  H        43.9133455883       15.3244554717        18.723736001638
  H        42.5221473469       18.7936971081        20.851961910038
  H        44.6576773967       18.8426647607        22.150823883538
  H        44.0058702570       17.2985483633        17.260099718638
  H        46.1991602752       26.6825346883        20.613163892138
  H        52.7411416232       21.0626376885        8.1946846283
  H        14.8824841650       19.6736561134        19.886946846838
  H        17.0832153977       19.7437033233        18.706908929938
  H        18.3319571349       16.2218374926        20.835897299638
  H        16.1335291760       16.1760271166        22.025886558038
  H        16.9423656370       17.7095563802        17.282798954838
  H        52.3224202444       21.6732242875        22.284046338538
  H        52.0132251269       21.7020660462        9.4956835699
  H        49.0674772987       18.6079365609        21.193903449238
  H        13.2474738414       19.0162798942        23.966980034138
  H        29.9306946777       12.4664057655       12.2555586361
  H        28.8535807435       10.5385646980       13.4247159548
  H        25.2421721158       11.2015305923       11.1855707268
  H        26.3387229798       13.1176946971       10.0092900158
  H        27.1231887568       11.6974032091       14.7846469860
  H        30.9947608479       22.7779684140       12.0098311667
  H        31.9988576002       24.6574558047       13.3085083274
  H        35.6959722019       24.1413275870       11.1718380993
  H        34.6701581384       22.2708394766        9.8657093708
  H        33.6546519054       23.5861146571       14.7612338560
  H        25.6935498775        8.5974345268       11.4019483712
  H        30.8918966895       22.6878982520        19.927480354638
  H        31.8991249747       24.5623964780        18.624750499938
  H        35.5411795718       24.1559018719        20.877376051138
  H        34.5160478803       22.2878560711        22.181176958938
  H        33.6032157896       23.5751634488        17.199222593238
  H        40.5974931078       17.0868742800        20.642504633338
  H        32.5046969241       14.1520181266        8.2489842027
  H        29.8729096049       12.5537708466        19.869829432538
  H        28.8304513034       10.6615314031        18.616903481538
  H        25.1969782373       11.1911728013        20.856613043238
  H        26.2599006823       13.0729089168        22.114488745938
  H        27.1229890195       11.7127158281        17.219089933538
  H        33.3059568919       14.2381560517        22.454089800538
  H        33.4066411716       14.4013625288        9.5988400077
  H        32.1240633851       18.5003368534        21.154614211838
  H        30.2121918280       14.1883557463        8.0756631571
  H        16.1183388670        2.9633232840       12.1298143450
  H        14.9532667504        4.8204806507       13.3225159723
  H        17.3664230541        7.6858876391       11.2101672643
  H        18.5150171496        5.8182456634       10.0103628091
  H        16.7537051433        5.7396752673       14.7715505801
  H        44.8281889732       32.1402028066       11.9768570133
  H        45.9374974447       30.3413290866       13.3062606613
  H        43.6820985144       27.3781371153       11.1526851615
  H        42.5993840047       29.1899604939        9.8100761757
  H        44.2304639420       29.4367666796       14.7689406970
  H        14.8512668349        8.5462765249       11.3633155177
  H        44.9000421512       32.2340444372        19.921771991238
  H        46.0249625451       30.4130183805        18.642288761138
  H        43.7633019408       27.4840827461        20.834984482238
  H        42.6454662277       29.3177118003        22.113990523338
  H        44.2686554660       29.4705481913        17.208006353638
  H        35.0040282568       26.6328109219        20.638007990438
  H        36.6051285429       35.1339060104        8.1807497006
  H        16.1436117624        3.0129576739        19.893700851238
  H        14.9741332737        4.8563709421        18.677955286238
  H        17.3958053917        7.7472282077        20.745223229338
  H        18.5427747346        5.8932305115        21.972874543138
  H        16.7647493562        5.7556031333        17.209100103338
  H        36.2785831308       34.4822038953        22.263107877538
  H        36.3808470523       34.2090211513        9.4997343135
  H        40.5790082665       33.2014555866        21.143942811138
  H        17.4707749978        1.9467914863        23.963852391038
  H        29.0624521966       19.3738287833       12.5104095939
  H        28.8104857039       18.5844737223        19.867663709738
  H        31.3908040831       15.6794623407        19.492930296838
  H        31.1250146938       15.5572297904       12.5102353680
  H        27.8752636325       17.7211562901       14.4813324921
  H        29.0954315805       15.3938370068       14.4394847113
  H        29.9456480235       19.8258604945        17.956779529138
  H        32.4649072040       17.1922732581        17.324474182338
  H        27.4773126286       14.5939093816        17.742488657038
  H        18.8533769086        0.8691206296       12.3350682055
  H        40.5278529509       35.2289674560        19.941937906738
  H        42.3236802079       34.4184921652        19.580637716938
  H        22.0878339957        0.6921192197       12.3514061714
  H        11.5970794772       18.7126035672       12.3823250885
  H        52.2648956199       18.4311499587        19.667237344838
  H        49.2548261123       16.4771866347        19.574574895338
  H        10.1496416234       15.7982802442       12.2930306628
  H        50.8500276154       17.6924648084        19.944036974538
  H        10.0457583859       17.3945579701       12.0519599120
  H        20.2146961879        0.0023210032       12.0420256279
  H        39.1835480721       36.1244000406        19.676398607538
 Ni        30.7357111720       17.7898267409        18.818472766838
 Ni        30.7389790271       16.4191370509       15.826432037738
 Ni        29.6698522197       18.6533543685       15.747641656638