     573
 i =      324, E =     -4762.8373772220
  C        11.8587236712       14.0535361018        21.731365477138
  C        12.4562684387       12.8905948950        21.013076060938
  C        11.7046254925       12.1716963618        20.071363732238
  C        12.2810526465       11.1095188948        19.379012753238
  C        13.6216249232       10.7397671350        19.606779058038
  C        14.3547300285       11.4433003288        20.580311299438
  C        13.7818129353       12.5082649567        21.271808620038
  C        14.2611767110        9.6491051443        18.833411637338
  C        14.2566678724        9.6571279886        17.411716687138
  C        13.7435180808       10.7592598889        16.657811973638
  C        49.1268787636       21.2332076470        21.869459848638
  C        48.5501741952       22.4012130205        21.142428207138
  C        49.3002054955       23.0684954213        20.161404132838
  C        48.7332943140       24.1076519375        19.428205087538
  C        47.4027656114       24.5093413871        19.656838701638
  C        46.6718440808       23.8605491534        20.670430905438
  C        47.2342747709       22.8156314775        21.399781219138
  C        46.7725271328       25.5870582868        18.859580301338
  C        46.7615453605       25.5574545545        17.437811901238
  C        47.2614475990       24.4423404534        16.694324103138
  C        14.8606610812        8.5708117656        16.698472477238
  C        14.8919465879        8.5971630728        19.510059719238
  C        49.1132330306       21.2034154486       10.1453544073
  C        48.5279243628       22.3648596935       10.8724494306
  C        49.2671274768       23.0254857738       11.8654414307
  C        48.6908405383       24.0601074044       12.5968525258
  C        47.3604262692       24.4568982701       12.3586325464
  C        46.6400303838       23.8120462026       11.3350621135
  C        47.2135399017       22.7760805565       10.6033282417
  C        46.7220065149       25.5318831185       13.1496696608
  C        46.7336995754       25.5282256276       14.5713778719
  C        47.2491677606       24.4290319264       15.3277695587
  C        40.6331397630       17.1027049772       15.3204581047
  C        40.6541899202       17.1424900224       12.5114350539
  C        11.8830799000       14.0865493114       10.2854811020
  C        12.4725186473       12.9108609150       10.9898237320
  C        11.7149785447       12.1774945898       11.9157743463
  C        12.2816671184       11.0951227475       12.5842558630
  C        13.6205445402       10.7215611199       12.3524821208
  C        14.3585102606       11.4372372722       11.3917556622
  C        13.7929842139       12.5183274105       10.7190147553
  C        14.2541782670        9.6248154220       13.1228681290
  C        14.2529500300        9.6448187320       14.5447033006
  C        13.7430472683       10.7537601498       15.2917678663
  C        22.5117004915        3.2455885911        21.742218942138
  C        23.2243965683        4.3531406212        21.042596037238
  C        24.2192898931        4.0770843464        20.092963571038
  C        24.8432112296        5.1192406961        19.411527705038
  C        24.4883768016        6.4604520557        19.658955576538
  C        23.5218951812        6.7280062385        20.645648745338
  C        22.8932637748        5.6876655732        21.325354659538
  C        25.0906868964        7.5691670361        18.882570168638
  C        25.0590519738        7.5629375927        17.460927313938
  C        24.3540889682        6.5643790056        16.716403797238
  C        38.3023597333       31.9299792668        21.839179527338
  C        37.5719828820       30.8408344968        21.130071678338
  C        36.6105530058       31.1452151095        20.154305588338
  C        35.9924344823       30.1253155243        19.436354246738
  C        36.3210624319       28.7761219701        19.672707771938
  C        37.2527964007       28.4791223543        20.685077475638
  C        37.8748626135       29.4977566383        21.402057802738
  C        35.7180301777       27.6851779939        18.875044779438
  C        35.7471274553       27.7021925582        17.453694145538
  C        36.4524042639       28.7053294330        16.716903912138
  C        25.6820315410        8.6317913628        16.739108588338
  C        25.6902109035        8.6442795102        19.551247641238
  C        38.3288438165       31.9626671925       10.1561405068
  C        37.6064091632       30.8904749510       10.8981319385
  C        36.6771833976       31.2009538132       11.9027496939
  C        36.0656534912       30.1836292862       12.6325399700
  C        36.3692100891       28.8307073250       12.3809490292
  C        37.2763035383       28.5301932420       11.3464134175
  C        37.8899252186       29.5440254596       10.6178540930
  C        35.7596498402       27.7326600876       13.1649964112
  C        35.7684899144       27.7264718148       14.5869317406
  C        36.4623197275       28.7171207531       15.3504041807
  C        46.1357288218       26.6208893766       15.2815074631
  C        46.0879623955       26.5801935885       12.4736174906
  C        22.4594697405        3.2559363561       10.2579700372
  C        23.1500859592        4.3659433299       10.9818968415
  C        24.1487975244        4.0823768972       11.9269293768
  C        24.7731143777        5.1144665630       12.6232810372
  C        24.4192339088        6.4595777088       12.3963546393
  C        23.4435102845        6.7363524130       11.4200783893
  C        22.8141715313        5.7045047807       10.7247264507
  C        25.0478323206        7.5597005209       13.1692629644
  C        25.0375661499        7.5573008621       14.5919692696
  C        24.3419862094        6.5628460649       15.3497489935
  C        26.6272620151       17.8622882699        21.769368378438
  C        25.3208193360       17.9028450798        21.041793330138
  C        25.0561736979       18.8958739933        20.085545856738
  C        23.8422678496       18.9105193157        19.400962350038
  C        22.8547140333       17.9359715962        19.651212537738
  C        23.1152657455       16.9652304726        20.636840060738
  C        24.3315769347       16.9447091273        21.318122532438
  C        21.5801957723       17.9183708218        18.888764111338
  C        21.5799847129       17.8932563544        17.466328878938
  C        22.7851013361       17.7636040385        16.706002944938
  C        34.4346355266       17.1941890570        21.905749473638
  C        35.7273556899       17.1394633566        21.161623375838
  C        35.9350561124       16.1633460569        20.174506079738
  C        37.1155564211       16.1480569427        19.436942270038
  C        38.1213193653       17.1064282987        19.668381564638
  C        37.9168835215       18.0627006284        20.681100349738
  C        36.7331597348       18.0841494126        21.414982140338
  C        39.3763916026       17.1109887391        18.883278123538
  C        39.3733890369       17.1208009664        17.461683693338
  C        38.1669756492       17.2402148296        16.702330124038
  C        20.3332875161       17.9138231580        16.757928904738
  C        20.3554101102       17.9248291622        19.571394126638
  C        34.4740889414       17.2442185619       10.1813742936
  C        35.7779482597       17.1629706408       10.9014857813
  C        35.9915975003       16.1714289658       11.8705366719
  C        37.1774379157       16.1471017016       12.5988417704
  C        38.1771977020       17.1135947243       12.3769811439
  C        37.9704583733       18.0798157713       11.3750507213
  C        36.7825205603       18.1090817765       10.6495324652
  C        39.4227403588       17.1265314562       13.1745143483
  C        39.3971374843       17.1293582367       14.5954895103
  C        38.1780895139       17.2427663747       15.3357064449
  C        35.1370375033       26.6475516417       15.2904015919
  C        35.1694971655       26.6624925526       12.4813038359
  C        26.5732137187       17.8262431641       10.3262625989
  C        25.2589017675       17.8697974865       11.0331648178
  C        25.0002845209       18.8633514468       11.9894106107
  C        23.7818690729       18.8863620844       12.6622716708
  C        22.7938335547       17.9151029321       12.4038460407
  C        23.0478137435       16.9461644875       11.4162692519
  C        24.2664623787       16.9214204243       10.7410199592
  C        21.5302122623       17.8932328046       13.1764415260
  C        21.5541861988       17.8775845373       14.5979804868
  C        22.7721892495       17.7550823634       15.3397463617
  C        14.0470183558       17.8284843493       10.2892619027
  C        15.3515582463       17.8842138001       11.0148882887
  C        15.6086480849       18.8849112637       11.9650972092
  C        16.8177494038       18.9037435884       12.6580876145
  C        17.8044230143       17.9247279342       12.4232129208
  C        17.5520422195       16.9483726945       11.4408975790
  C        16.3424158758       16.9248418414       10.7496281066
  C        19.0737102707       17.9046899171       13.1922563085
  C        19.0727494945       17.8982091248       14.6148268857
  C        17.8658396481       17.8007559154       15.3763796234
  C        46.8065086150       17.2182727299       10.1588365662
  C        45.5182934462       17.1553176102       10.9060523268
  C        45.3148652559       16.1746505071       11.8891033284
  C        44.1347367273       16.1542924549       12.6271777175
  C        43.1293802134       17.1149907003       12.4038559980
  C        43.3303576774       18.0758077491       11.3945279805
  C        44.5110246600       18.0998289706       10.6571179837
  C        41.8768359397       17.1228319213       13.1921269116
  C        41.8809400967       17.1160890150       14.6138090804
  C        43.0890275333       17.2066894116       15.3743009108
  C        20.3196768074       17.9050360868       15.3230371033
  C        20.2979186043       17.8863356335       12.5099301798
  C        46.7850152901       17.2300608105        21.880164810638
  C        45.4808807280       17.1206340110        21.167223514238
  C        45.2625992352       16.1187998163        20.209416011438
  C        44.0742725283       16.0888147459        19.483938381138
  C        43.0751251784       17.0577384582        19.699368262538
  C        43.2832036449       18.0286561346        20.696706080738
  C        44.4727277177       18.0650124691        21.417214796638
  C        41.8300949674       17.0788766204        18.900841366538
  C        41.8571394364       17.0924763069        17.479969663638
  C        43.0777826496       17.1931849998        16.740729877038
  C        46.1534786704       26.6373068799        16.716058415838
  C        46.1625922208       26.6561905106        19.525711668238
  C        14.0460207041       17.8312476092        21.698223415138
  C        15.3676527824       17.9037125786        21.008044643038
  C        15.6432909851       18.9170312947        20.077775449838
  C        16.8729453242       18.9516017127        19.423719092438
  C        17.8550000229       17.9717764450        19.673547043738
  C        17.5863174219       16.9877644577        20.642346274838
  C        16.3587918906       16.9526574784        21.299936724938
  C        19.1225598004       17.9430609078        18.904663319438
  C        19.0983146486       17.9169095654        17.483081036638
  C        17.8783040496       17.8091846889        16.742414929338
  C        28.8095242643       14.0921154235       10.3915334429
  C        28.1950709378       12.9181905186       11.0767681532
  C        28.9138903705       12.1782636530       12.0268923529
  C        28.3114503721       11.1039532920       12.6764743608
  C        26.9759054179       10.7473512227       12.4011786849
  C        26.2788693468       11.4676173759       11.4146639374
  C        26.8794372806       12.5413096409       10.7624972594
  C        26.3026569946        9.6707954387       13.1630389241
  C        26.2875755226        9.7008546331       14.5838972874
  C        26.7953427572       10.8134156834       15.3272132126
  C        32.1795446710       21.2422865302       10.1430956873
  C        32.7729264599       22.4108300381       10.8593283882
  C        32.0221898115       23.0893445943       11.8316778978
  C        32.5909922210       24.1291583978       12.5607685542
  C        33.9261704425       24.5178145985       12.3384842962
  C        34.6592082364       23.8582428456       11.3340336610
  C        34.0925878908       22.8132404232       10.6064699569
  C        34.5536503639       25.5930394927       13.1401479872
  C        34.5444773181       25.5646238850       14.5618206919
  C        34.0337071462       24.4501625399       15.2995829683
  C        25.6756225672        8.6254682374       15.3045820583
  C        25.6658578201        8.6191763151       12.4913215207
  C        32.1039122784       21.2270656928        21.875344285938
  C        32.6951330528       22.3783029333        21.129971604938
  C        31.9575772223       23.0392013214        20.135530254038
  C        32.5363081962       24.0690371888        19.397149218438
  C        33.8661955303       24.4682099372        19.635491404638
  C        34.5864333379       23.8203920103        20.657343714838
  C        34.0124935015       22.7849865402        21.390810878638
  C        34.5043186044       25.5507142829        18.851058468838
  C        34.5178689679       25.5437602936        17.429101003538
  C        34.0198192071       24.4409961138        16.666194100938
  C        40.6208042829       17.0945055938        16.754724472838
  C        40.5986622170       17.1068434816        19.564503173838
  C        28.7480700396       14.0747630285        21.805107647738
  C        28.1310666723       12.9366168146        21.057818113338
  C        28.8628142433       12.2382478612        20.085333461038
  C        28.2782095703       11.1826665038        19.389103295238
  C        26.9454522133       10.7984974717        19.640152932638
  C        26.2289866337       11.4877367396        20.636503061338
  C        26.8120242617       12.5437908100        21.334407098138
  C        26.3015343320        9.7061880663        18.871542083238
  C        26.2899689481        9.7183257704        17.449921290238
  C        26.7955204557       10.8217748119        16.692834240538
  C        18.1355355256        3.1810313847       10.3172432452
  C        17.4063094696        4.2783119427       11.0158809507
  C        16.3905317625        4.0000230240       11.9433558188
  C        15.7429336563        5.0400581069       12.6069011765
  C        16.0948845678        6.3837557308       12.3671346824
  C        17.0843051717        6.6532052720       11.4033900993
  C        17.7332670389        5.6158117979       10.7383008001
  C        15.4706261227        7.4914893534       13.1301714713
  C        15.4859657366        7.4908510995       14.5518842187
  C        16.1874696058        6.4971937864       15.3050568174
  C        42.9459650917       31.8595341899       10.0728554830
  C        43.6463403742       30.7718944543       10.8168212186
  C        44.5918546513       31.0932242175       11.8029070829
  C        45.1976029912       30.0876831500       12.5505371680
  C        44.8711722204       28.7346161810       12.3357037340
  C        43.9453266594       28.4202717951       11.3225124824
  C        43.3364690225       29.4254099678       10.5745064087
  C        45.4888393267       27.6553618938       13.1388894617
  C        45.4929178397       27.6809469844       14.5605830758
  C        44.8058764716       28.6890183131       15.3072089734
  C        14.8569315699        8.5633001014       15.2642537909
  C        14.8753666054        8.5632723919       12.4515712438
  C        42.9464910700       31.9616087204        21.798783174238
  C        43.6918092325       30.8855176935        21.085352750638
  C        44.6563124994       31.1914481103        20.112962542638
  C        45.2778991303       30.1718714107        19.395277740438
  C        44.9541580083       28.8215388897        19.632900243338
  C        44.0207227170       28.5238503181        20.643719254138
  C        43.3924060612       29.5406055326        21.355865109938
  C        45.5632210387       27.7241467272        18.847656293938
  C        45.5334885865       27.7174493280        17.426354939938
  C        44.8271493677       28.7076617418        16.673392659338
  C        35.1248559637       26.6360835520        16.725222332638
  C        35.1154850882       26.6083860837        19.535049411238
  C        18.1485781492        3.2469931917        21.696351004838
  C        17.4299918680        4.3438493931        20.987111011338
  C        16.4148651023        4.0526131456        20.063445388338
  C        15.7666172936        5.0832860475        19.388055593838
  C        16.1211906615        6.4285168585        19.610945366438
  C        17.1125170704        6.7118421532        20.568272035238
  C        17.7601441731        5.6829019261        21.248026207438
  C        15.4907842909        7.5242359387        18.838479378038
  C        15.4968629549        7.5076989182        17.417355173938
  C        16.1936509336        6.5060102187        16.670661732938
  H        10.6724872338       12.4658047552        19.894342070838
  H        11.6948102312       10.5510396747        18.652441868638
  H        15.3917645806       11.1687473301        20.762063616638
  H        14.3512272040       13.0715433020        22.007248133338
  H        13.3764576329       11.6313583020        17.191127100938
  H        50.3228942620       22.7484061763        19.976633786638
  H        49.3198066721       24.6228984174        18.670630604238
  H        45.6423887630       24.1614148138        20.853663114838
  H        46.6632507496       22.2904563757        22.161907246938
  H        47.6300012614       23.5759643288        17.236003168238
  H        14.8721293890        8.5883416850        20.598358509338
  H        50.2871932104       22.7026669767       12.0603155667
  H        49.2692446895       24.5755444278       13.3603636314
  H        45.6106373718       24.1093100034       11.1459837956
  H        46.6527354047       22.2540045646        9.8317006492
  H        47.6079411312       23.5519083675       14.7968736057
  H        40.6614616277       17.1158408462       11.4234999214
  H        48.6872256066       14.0948991613        23.789871219538
  H        10.6814612052       12.4664471610       12.0931143990
  H        11.6898854680       10.5245854560       13.2968562962
  H        15.3940004900       11.1594823207       11.2059170006
  H        14.3653494799       13.0878614253        9.9906293828
  H        13.3762179970       11.6223618730       14.7531047705
  H        47.9302466794       14.2183749388        9.7106509050
  H        47.7801152236       14.3739786126        22.485221497738
  H        49.0840848634       18.5525013342       10.8674289081
  H        10.4161285108       14.1343212263        7.9986323512
  H        24.4816194026        3.0393912308        19.898948726238
  H        25.6144958538        4.9040077143        18.675151029938
  H        23.2398974228        7.7599865798        20.843966586138
  H        22.1248535245        5.8857515352        22.068635814038
  H        23.7922839961        5.8089786585        17.258021038038
  H        36.3728395959       32.1885128032        19.960581620138
  H        35.2465038968       30.3644896720        18.681600195038
  H        37.5138460395       27.4399629682        20.874386982938
  H        38.6198817165       29.2767050936        22.162678033438
  H        37.0177224363       29.4546952840        17.263236284138
  H        25.7281719320        8.6277492004        20.639004809938
  H        36.4551398407       32.2455469394       12.1089042021
  H        35.3394204493       30.4295565323       13.4041100646
  H        37.5222918108       27.4895427535       11.1457829443
  H        38.6126539739       29.3173269411        9.8378542436
  H        37.0363321084       29.4751467097       14.8253059408
  H        46.1093994715       26.5876104450       11.3855841237
  H        44.6682467422       35.1162180782        23.803686151238
  H        24.4265669920        3.0446702707       12.0973040259
  H        25.5514046863        4.8878480314       13.3488720345
  H        23.1589651307        7.7703508380       11.2359933253
  H        22.0449336415        5.9150633164        9.9853394861
  H        23.7700390570        5.8069121185       14.8194291037
  H        44.9538503880       34.3904425205        9.6952204029
  H        44.9016823864       34.2068315075        22.480346039038
  H        40.6660088903       33.2090256400       10.8530210962
  H        23.1503249555        1.9580665132        8.0050800109
  H        25.8121435920       19.6541762809        19.895202546538
  H        23.6432442608       19.6869016117        18.665269188538
  H        22.3648398083       16.2039075040        20.840196399638
  H        24.5425497196       16.1822872519        22.064415957538
  H        23.7261103751       17.6404087213        17.234505723738
  H        35.1552349694       15.4268237432        19.996083144738
  H        37.2760770059       15.3836904723        18.679694069038
  H        38.6858990888       18.8104720924        20.863756529338
  H        36.5584899006       18.8364206157        22.180773770438
  H        37.2272359305       17.3616831144        17.233298960738
  H        20.3624997571       17.9677849549        20.659160065038
  H        35.2084170510       15.4385613259       12.0496325828
  H        37.3430986820       15.3758043747       13.3478466991
  H        38.7370968969       18.8317882266       11.2000247143
  H        36.5997548314       18.8724264614        9.8968869664
  H        37.2468878865       17.3654917259       14.7900389987
  H        35.1428902704       26.6883861870       11.3935949629
  H        28.5105670125       21.0772327634        23.964872580538
  H        25.7670770806       19.6085599893       12.1886312003
  H        23.5806840032       19.6613740435       13.3986864088
  H        22.2935872409       16.1891923450       11.2110684268
  H        24.4787340696       16.1616452216        9.9926444473
  H        23.7030948885       17.6247569765       14.7959626297
  H        29.0025544252       21.7215362527        9.7602847339
  H        29.1630246575       21.7418406729        22.614176155038
  H        32.0923738486       18.5646361236       10.9934167981
  H        27.4083965178       19.0765598416        8.0821198210
  H        14.8505260894       19.6438047824       12.1453583424
  H        17.0129895748       19.6862053230       13.3882860220
  H        18.3031448211       16.1845422477       11.2501444564
  H        16.1365087542       16.1575457836       10.0071090890
  H        16.9229665163       17.6871471757       14.8493067854
  H        46.0985021696       15.4421074936       12.0674134484
  H        43.9763980326       15.3859277609       13.3807057352
  H        42.5615591652       18.8253801719       11.2188261299
  H        44.6833444226       18.8553831069        9.8942016680
  H        44.0316077549       17.3201184041       14.8464261582
  H        20.2918686922       17.9210802177       11.4219288790
  H        46.0401210581       15.3786895079        20.034527602138
  H        43.9076932880       15.3119223966        18.740917450038
  H        42.5163003107       18.7808229139        20.869512435038
  H        44.6553093541       18.8338351296        22.163962131938
  H        44.0117581670       17.2949909404        17.285722436638
  H        46.1994441800       26.6827298668        20.613158369038
  H        52.7412111177       21.0626540188        8.1947077031
  H        14.8840773957       19.6715543195        19.883842389538
  H        17.0852977698       19.7404858217        18.705331957838
  H        18.3355860408       16.2248735023        20.843580176638
  H        16.1364490699       16.1797468764        22.031617392938
  H        16.9447651386       17.7020026077        17.286549747138
  H        52.3227254908       21.6733161999        22.283916156238
  H        52.0133185671       21.7020986555        9.4957049625
  H        49.0673895754       18.6076595193        21.193903965838
  H        13.2477167503       19.0161439167        23.967122976038
  H        29.9413397737       12.4608745412       12.2442884785
  H        28.8702297958       10.5292066203       13.4118712590
  H        25.2467922197       11.2020712543       11.1950764839
  H        26.3392457379       13.1194919128       10.0168944157
  H        27.1631892826       11.6803868310       14.7865769461
  H        30.9970827788       22.7742780070       12.0112296743
  H        32.0039896070       24.6550469386       13.3106009919
  H        35.6925775004       24.1494106644       11.1570402167
  H        34.6640446599       22.2778312380        9.8517029900
  H        33.6768564613       23.5826151553       14.7518723914
  H        25.6982229578        8.5967046420       11.4034419564
  H        30.9329605706       22.7249619340        19.949824906838
  H        31.9575537701       24.5837658438        18.633213076838
  H        35.6158144200       24.1175951445        20.846949397638
  H        34.5735734499       22.2628595859        22.162416226638
  H        33.6525662145       23.5660255545        17.194790149938
  H        40.5901805391       17.0719360505        20.652256171438
  H        32.5046975037       14.1543898455        8.2565633952
  H        29.8931436971       12.5316223155        19.897421657538
  H        28.8546264092       10.6359982973        18.645876201438
  H        25.1974901211       11.2048176563        20.836622089238
  H        26.2571855253       13.0892593535        22.094174733038
  H        27.1680379131       11.6939916280        17.222359061438
  H        33.3071923412       14.2377379982        22.456758496138
  H        33.4087599445       14.4104299064        9.5981893427
  H        32.1249121642       18.5144958120        21.163674249238
  H        30.2271658395       14.1955892761        8.0708286945
  H        16.1184434139        2.9635349098       12.1298198394
  H        14.9534381006        4.8207505597       13.3225443839
  H        17.3667711903        7.6860692165       11.2102449187
  H        18.5153373454        5.8183863388       10.0104735283
  H        16.7540613253        5.7398763025       14.7715506761
  H        44.8281914337       32.1402993598       11.9770500615
  H        45.9375165694       30.3414338339       13.3064334850
  H        43.6826469009       27.3782035705       11.1523911362
  H        42.5998694230       29.1900501961        9.8098396224
  H        44.2305002610       29.4367657994       14.7689043437
  H        14.8515688048        8.5464956190       11.3633426836
  H        44.8998771098       32.2341240924        19.921516891038
  H        46.0247966904       30.4131074648        18.642031394638
  H        43.7638283537       27.4841127307        20.835326603438
  H        42.6459799572       29.3177705496        22.114368100638
  H        44.2686258191       29.4705392903        17.207973469938
  H        35.0751827915       26.6191582985        20.622614296438
  H        36.6050636654       35.1340953392        8.1806662020
  H        16.1437990677        3.0130396313        19.893653773738
  H        14.9743216786        4.8564822018        18.677924966138
  H        17.3959417970        7.7473034670        20.745307496838
  H        18.5429565330        5.8932872620        21.972877688938
  H        16.7650508262        5.7557501548        17.209102687138
  H        36.2784006919       34.4826529892        22.262945489238
  H        36.3807721174       34.2092723877        9.4996998041
  H        40.5803290546       33.2025333752        21.143439268238
  H        17.4707498039        1.9473782482        23.963917080838
  H        29.0057474466       19.3231889701       12.4850415147
  H        29.0871782757       19.2244165805        19.581270883538
  H        31.4207726667       15.7419266658        19.513979189438
  H        31.1614039608       15.5375469879       12.4982931507
  H        27.7523190328       17.7591505420       14.5261476431
  H        29.0460722185       15.3807881417       14.6946694400
  H        31.1119883907       19.7828994612        17.396417626838
  H        32.5323633249       17.2054595508        17.363640170438
  H        27.0663385913       14.6872218996        17.482486809038
  H        18.8537710992        0.8691667087       12.3353195017
  H        40.5279108737       35.2288600608        19.941767185838
  H        42.3243130025       34.4187805729        19.580280655038
  H        22.0879160468        0.6921670394       12.3515202284
  H        11.5970005754       18.7131153594       12.3825153635
  H        52.2650353184       18.4313878068        19.667000313638
  H        49.2558647684       16.4769061400        19.574051147138
  H        10.1508665651       15.7982012102       12.2926560944
  H        50.8503082532       17.6922996731        19.944093019838
  H        10.0464321647       17.3944970626       12.0519820656
  H        20.2150833935        0.0023892736       12.0419627101
  H        39.1837526536       36.1244555860        19.676200994238
 Ni        30.7750729980       17.8172810759        18.819260101538
 Ni        30.7288636988       16.3873646300       15.989409172538
 Ni        29.6407986732       18.5673034871       15.744549243838