     569
 i =       84, E =     -4729.5234356044
  C        11.8585533204       14.0533924089        21.731355451538
  C        12.4559801690       12.8903562946        21.013091279738
  C        11.7045225234       12.1720597438        20.070775770338
  C        12.2808220482       11.1098461715        19.378368160438
  C        13.6211271181       10.7393914012        19.606638839238
  C        14.3539883607       11.4422391133        20.580886553338
  C        13.7811522888       12.5071779197        21.272487695738
  C        14.2606389360        9.6487645375        18.833201680538
  C        14.2558634498        9.6566439173        17.411491673738
  C        13.7427119347       10.7587302739        16.657520724038
  C        49.1264257594       21.2335561555        21.869465435938
  C        48.5495493166       22.4012823565        21.142392948938
  C        49.2996708464       23.0688364206        20.161599019638
  C        48.7326520971       24.1078635790        19.428355210238
  C        47.4019696223       24.5091761599        19.656751521538
  C        46.6708937414       23.8600274230        20.669992835538
  C        47.2334073010       22.8151928297        21.399384427438
  C        46.7717668973       25.5868463158        18.859449782238
  C        46.7609190715       25.5572506552        17.437700268538
  C        47.2608225645       24.4421169469        16.694254161538
  C        14.8596778423        8.5702330844        16.698224383438
  C        14.8913988128        8.5967766832        19.509830447338
  C        49.1129086410       21.2034958937       10.1452807878
  C        48.5274695412       22.3646972092       10.8724740229
  C        49.2666322214       23.0254610977       11.8654180680
  C        48.6901974353       24.0599434884       12.5968672296
  C        47.3597496612       24.4566072504       12.3586143022
  C        46.6393847552       23.8116250899       11.3351055711
  C        47.2130409635       22.7757987850       10.6033078281
  C        46.7212874609       25.5315622461       13.1496066228
  C        46.7331307013       25.5279837058       14.5713003786
  C        47.2485317496       24.4287700031       15.3277047240
  C        40.6282502088       17.1343520008       15.3115389980
  C        40.6458326187       17.2164730307       12.5026861240
  C        11.8826204662       14.0862804931       10.2853720622
  C        12.4714875764       12.9100342658       10.9892836014
  C        11.7140428772       12.1776861944       11.9161265041
  C        12.2802697621       11.0950552469       12.5845646138
  C        13.6186707684       10.7202668792       12.3520309503
  C        14.3564081645       11.4347591727       11.3902257654
  C        13.7913421239       12.5161001756       10.7175281709
  C        14.2522106000        9.6236011520       13.1225669561
  C        14.2513948005        9.6438955721       14.5444122894
  C        13.7418557630       10.7530076862       15.2914710496
  C        22.5041002392        3.2420036870        21.737199321938
  C        23.2035744363        4.3446129873        21.021397181838
  C        24.2007593382        4.0611458374        20.076864249238
  C        24.8196648039        5.0981285368        19.384457188338
  C        24.4550939836        6.4385410023        19.617664201438
  C        23.4815690778        6.7137793810        20.594771536838
  C        22.8588290598        5.6787672140        21.286168893238
  C        25.0620193330        7.5442442073        18.844651040738
  C        25.0484740292        7.5389271984        17.424030592938
  C        24.3573177348        6.5372041582        16.671971257438
  C        38.2979158499       31.9276033784        21.841598955638
  C        37.5566251722       30.8388307590        21.140582151838
  C        36.5914647036       31.1452191357        20.168634626338
  C        35.9616555538       30.1270075209        19.457863099738
  C        36.2814969999       28.7756927154        19.695345044138
  C        37.2156636434       28.4768319120        20.705340910638
  C        37.8494181675       29.4939300774        21.415606158138
  C        35.6738456416       27.6861799086        18.896002455538
  C        35.7177734513       27.6988255277        17.474268594138
  C        36.4274486867       28.7016607164        16.741069260938
  C        25.6753341755        8.6120387618        16.712697177338
  C        25.6510012432        8.6174851617        19.522640625938
  C        38.3304537156       31.9598367383       10.1607885051
  C        37.6155052918       30.8853765865       10.9099756782
  C        36.6808593288       31.1918313711       11.9112778927
  C        36.0736455670       30.1729358378       12.6437136537
  C        36.3858425840       28.8200332816       12.4001739850
  C        37.3011801582       28.5235308572       11.3712542578
  C        37.9099467027       29.5388332670       10.6396749141
  C        35.7750662583       27.7193474893       13.1826790657
  C        35.7689356403       27.7160683859       14.6055651856
  C        36.4501011613       28.7112424739       15.3745682605
  C        46.1351879755       26.6206712640       15.2813969146
  C        46.0872680866       26.5798541504       12.4735174482
  C        22.4639518172        3.2536942952       10.2510465873
  C        23.1675956895        4.3617444768       10.9622650232
  C        24.1800049204        4.0746859296       11.8912211675
  C        24.8145600989        5.1051866183       12.5795743324
  C        24.4546769532        6.4495304561       12.3606677391
  C        23.4673687005        6.7301765800       11.3980721503
  C        22.8288894326        5.7000247926       10.7092926060
  C        25.0815591753        7.5459914054       13.1377402234
  C        25.0588831645        7.5390880694       14.5593727515
  C        24.3597377707        6.5388451583       15.3058359520
  C        26.5524931381       17.8316679222        21.769929561838
  C        25.2528712316       17.8897309271        21.048619564938
  C        25.0050425950       18.8929194717        20.098483442638
  C        23.7976998972       18.9186523914        19.405799322338
  C        22.8066604898       17.9448925519        19.642315101838
  C        23.0498155395       16.9661114347        20.623934449138
  C        24.2585230297       16.9345111875        21.314993747138
  C        21.5424644865       17.9343540580        18.869281475738
  C        21.5532796157       17.9260243528        17.447509805338
  C        22.7639369567       17.8079253774        16.694402364138
  C        34.4285080466       17.1725423922        21.874447633438
  C        35.7249954185       17.0972592363        21.143631060438
  C        35.9188142990       16.1407483418        20.135102244538
  C        37.1031540806       16.1217635214        19.403421582038
  C        38.1245861610       17.0562843772        19.662424929038
  C        37.9350226252       17.9880294221        20.700915156138
  C        36.7482698983       18.0145968925        21.427785943738
  C        39.3777873773       17.0723758402        18.875597169438
  C        39.3719664948       17.1119259834        17.454134818038
  C        38.1646448787       17.2489479376        16.698854369738
  C        20.3108425492       17.9499986099        16.733374056438
  C        20.3156541054       17.9271903839        19.545751136838
  C        34.5010233852       17.2424180135       10.1131587718
  C        35.7875146828       17.2023886430       10.8621138959
  C        36.0050814407       16.2140440593       11.8345252710
  C        37.1807403532       16.2085186444       12.5784059731
  C        38.1694985171       17.1889532441       12.3685580347
  C        37.9558937351       18.1581874182       11.3703604095
  C        36.7762034232       18.1705766717       10.6301577320
  C        39.4149993907       17.1990215470       13.1673981481
  C        39.3912040236       17.1776132183       14.5885701170
  C        38.1735725908       17.2794773394       15.3323855942
  C        35.1352817710       26.6359549063       15.3063866643
  C        35.1957674059       26.6438768753       12.4963642816
  C        26.5628956822       17.8443277745       10.3154217245
  C        25.2471713288       17.8993618202       11.0116887245
  C        24.9923484589       18.9033061698       11.9587495642
  C        23.7775302197       18.9319784049       12.6367946546
  C        22.7895579551       17.9580932210       12.3893299163
  C        23.0384788462       16.9808742501       11.4086084447
  C        24.2543267829       16.9483629906       10.7299384296
  C        21.5263149667       17.9422047900       13.1602857611
  C        21.5445443779       17.9292413651       14.5813264890
  C        22.7592802382       17.8094231751       15.3282470774
  C        14.0455479700       17.8331127764       10.2827481206
  C        15.3533264249       17.9010460683       10.9977884466
  C        15.6129715971       18.9192658932       11.9278158292
  C        16.8243301176       18.9494554203       12.6149633169
  C        17.8065798404       17.9639951443       12.3926910618
  C        17.5531008256       16.9712580259       11.4281101765
  C        16.3413480244       16.9369575185       10.7420645424
  C        19.0723405834       17.9506085248       13.1640268287
  C        19.0631335507       17.9441059126       14.5855573165
  C        17.8509217677       17.8450033513       15.3383081359
  C        46.8046663605       17.2207998538       10.1582010122
  C        45.5145867204       17.1671195301       10.9022523629
  C        45.2966695557       16.1871809945       11.8827078934
  C        44.1141113387       16.1804602079       12.6172473235
  C        43.1214648019       17.1547415132       12.3940280652
  C        43.3364241558       18.1140779083       11.3863887604
  C        44.5188392132       18.1238466005       10.6519083728
  C        41.8690692585       17.1760385557       13.1816723652
  C        41.8748079139       17.1534665348       14.6031793564
  C        43.0843703827       17.2318820035       15.3627020459
  C        20.3059548958       17.9510426563       15.2995466906
  C        20.2982085368       17.9320764988       12.4873062156
  C        46.7845004601       17.2297358409        21.877758688738
  C        45.4826101457       17.1165566590        21.160621528038
  C        45.2739329682       16.1179832740        20.196797827238
  C        44.0871703503       16.0812795055        19.468756573638
  C        43.0785792822       17.0395371188        19.687787094838
  C        43.2778481854       18.0076567448        20.689947789538
  C        44.4661011332       18.0513258302        21.412671691338
  C        41.8323113564       17.0550292276        18.889695804038
  C        41.8565615976       17.0888945113        17.468934057338
  C        43.0756208759       17.2009711237        16.729017027438
  C        46.1529715656       26.6371399680        16.715929497438
  C        46.1617533697       26.6559228536        19.525570124738
  C        14.0388889863       17.8272047322        21.694972314938
  C        15.3514531895       17.8941552434        20.991398360738
  C        15.6229385559       18.9202146082        20.074465300538
  C        16.8461392141       18.9573529168        19.410112830138
  C        17.8218202789       17.9672008837        19.638738165438
  C        17.5553659286       16.9655413747        20.589227544138
  C        16.3344835266       16.9283667511        21.257663350838
  C        19.0885144061       17.9508680242        18.872031469138
  C        19.0717665412       17.9432813678        17.451068495738
  C        17.8551959740       17.8443490135        16.704332462638
  C        28.8137856755       14.0707460253       10.3554386681
  C        28.2082889469       12.8982089402       11.0419943425
  C        28.9290637056       12.1782993694       12.0065107491
  C        28.3306776720       11.1097398944       12.6687003647
  C        27.0005638352       10.7369781428       12.3875203243
  C        26.3034297137       11.4369080627       11.3863322921
  C        26.8971719561       12.5076341484       10.7249790999
  C        26.3300827135        9.6589722257       13.1476322967
  C        26.3013370200        9.6873703483       14.5678925722
  C        26.7903537107       10.8032769170       15.3182115624
  C        32.1972055825       21.2313895689       10.1422393272
  C        32.7944360000       22.3869628322       10.8717990672
  C        32.0478351403       23.0639314878       11.8490345546
  C        32.6188207996       24.1035704286       12.5765327092
  C        33.9527435995       24.4954731287       12.3502576733
  C        34.6823771542       23.8356253592       11.3428276876
  C        34.1140252835       22.7906302234       10.6163732260
  C        34.5777436250       25.5730139578       13.1523333329
  C        34.5567472114       25.5473521599       14.5745918467
  C        34.0488682476       24.4305317938       15.3107082087
  C        25.6858265893        8.6080577714       15.2792741252
  C        25.7025032608        8.6072551454       12.4675997403
  C        32.0727351307       21.1991894341        21.865329127838
  C        32.6432885100       22.3629215800        21.126131037038
  C        31.9222329819       22.9916974972        20.099226112638
  C        32.4979405015       24.0310445710        19.370379668038
  C        33.8085130192       24.4704707001        19.646051669538
  C        34.5091996061       23.8546282364        20.701609687738
  C        33.9393569813       22.8123665687        21.426885566938
  C        34.4538192153       25.5525139998        18.865124799438
  C        34.4928025705       25.5371157844        17.442594573538
  C        34.0172748101       24.4260531191        16.677184557038
  C        40.6186910014       17.1004264761        16.745585906938
  C        40.6015307315       17.0623414719        19.554761875138
  C        28.6878109840       14.0258862133        21.808443775538
  C        28.0755836977       12.8835735195        21.079215206038
  C        28.8089896363       12.2116703830        20.088802187838
  C        28.2304604160       11.1629716681        19.381475058238
  C        26.9034129453       10.7637699857        19.637109363738
  C        26.1881121069       11.4224259769        20.654849228438
  C        26.7649316546       12.4716735059        21.366274700638
  C        26.2660539903        9.6822784477        18.853111174038
  C        26.2683258609        9.7008009002        17.431665693638
  C        26.7713235129       10.8115829127        16.683843721038
  C        18.1351530706        3.1806728338       10.3171176116
  C        17.4054315143        4.2777771513       11.0156844685
  C        16.3898978992        3.9991108212       11.9432895702
  C        15.7418314112        5.0389003834       12.6067748808
  C        16.0932288147        6.3827054658       12.3669234090
  C        17.0823625027        6.6525308063       11.4029985292
  C        17.7317843080        5.6153750479       10.7379805264
  C        15.4687577949        7.4903191983       13.1299591575
  C        15.4844477671        7.4899258990       14.5516672054
  C        16.1862917347        6.4964989433       15.3048116172
  C        42.9457590739       31.8594295474       10.0728236052
  C        43.6460515076       30.7717197910       10.8167373257
  C        44.5917477943       31.0929696764       11.8026707395
  C        45.1973640340       30.0873658814       12.5503157416
  C        44.8706455484       28.7343546563       12.3355834665
  C        43.9446272930       28.4200802096       11.3225345068
  C        43.3359167859       29.4252780249       10.5744898575
  C        45.4881858371       27.6550470193       13.1387770362
  C        45.4924766424       27.6807796243       14.5604633302
  C        44.8054792388       28.6889112462       15.3070542926
  C        14.8555911049        8.5625070246       15.2639964446
  C        14.8731668716        8.5618737719       12.4513369721
  C        42.9463505062       31.9614438460        21.798770227938
  C        43.6913552079       30.8853181072        21.085133309038
  C        44.6563682475       31.1912077120        20.113238584538
  C        45.2778053237       30.1716081982        19.395467907838
  C        44.9535209797       28.8213451139        19.632696928338
  C        44.0195076295       28.5236758008        20.642969342938
  C        43.3913252410       29.5404570227        21.355185502838
  C        45.5625973171       27.7239561950        18.847476552838
  C        45.5330273824       27.7173197571        17.426189138038
  C        44.8267809893       28.7075957466        16.673235332838
  C        35.1058155017       26.6290166345        16.741824081538
  C        35.0575115342       26.6143031537        19.551935722138
  C        18.1483332644        3.2467693391        21.696362843538
  C        17.4297127922        4.3436072773        20.986924352238
  C        16.4145845777        4.0523072421        20.063303560538
  C        15.7662315478        5.0829246965        19.387901270438
  C        16.1207949347        6.4281677855        19.610673716738
  C        17.1121035192        6.7115822829        20.567990965138
  C        17.7597712418        5.6826842222        21.247781835238
  C        15.4902617907        7.5238650946        18.838249200338
  C        15.4960594847        7.5072188623        17.417110775538
  C        16.1927934262        6.5054996495        16.670413413238
  H        10.6725952834       12.4666520931        19.893329633238
  H        11.6946208586       10.5518055335        18.651419689138
  H        15.3907329176       11.1669599786        20.763223112038
  H        14.3502925583       13.0696894842        22.008721776438
  H        13.3758454896       11.6309573862        17.190757165038
  H        50.3224848742       22.7490385157        19.977056511738
  H        49.3191180060       24.6233214619        18.670896978238
  H        45.6412454069       24.1604471239        20.852861221338
  H        46.6622412873       22.2896662781        22.161166420538
  H        47.6292041840       23.5756869005        17.235960689338
  H        14.8716552444        8.5879346955        20.598135490738
  H        50.2866926754       22.7026855618       12.0603499087
  H        49.2684940313       24.5754569456       13.3603997195
  H        45.6099401503       24.1087400257       11.1460675641
  H        46.6522251608       22.2536270558        9.8317453342
  H        47.6071358026       23.5515561830       14.7968490308
  H        40.6514834269       17.2024916377       11.4144926669
  H        48.6869402119       14.0948304612        23.789723497438
  H        10.6808940539       12.4675661862       12.0940999530
  H        11.6884865495       10.5253231273       13.2977988608
  H        15.3914375426       11.1558679941       11.2035607750
  H        14.3634958840       13.0846502825        9.9882157351
  H        13.3749395801       11.6215716101       14.7528189347
  H        47.9300065285       14.2179049647        9.7108537655
  H        47.7799830855       14.3731746073        22.484874744438
  H        49.0829924601       18.5523805932       10.8671846268
  H        10.4157326267       14.1342549402        7.9988579383
  H        24.4694584511        3.0224512694        19.898058341338
  H        25.5957954609        4.8805774575        18.653917255938
  H        23.1929341021        7.7467660495        20.777382166438
  H        22.0866360606        5.8791412907        22.024812700438
  H        23.7943204212        5.7780457931        17.207153967138
  H        36.3597120252       32.1892476178        19.971565539538
  H        35.2143729133       30.3699358678        18.705588013838
  H        37.4708162451       27.4366849835        20.897456666838
  H        38.5962069750       29.2689523434        22.173452005238
  H        36.9849046449       29.4546059962        17.290525952038
  H        25.6787766541        8.5963855053        20.610511576638
  H        36.4492064938       32.2353417652       12.1126025253
  H        35.3423796186       30.4184277842       13.4106994440
  H        37.5568009817       27.4841939827       11.1757139793
  H        38.6371553002       29.3124707045        9.8636766092
  H        37.0257248404       29.4711940011       14.8539135242
  H        46.1085239501       26.5871576094       11.3854787229
  H        44.6682019701       35.1161577790        23.803961183838
  H        24.4582179158        3.0361932140       12.0556915608
  H        25.6019384464        4.8785810897       13.2952865543
  H        23.1803195260        7.7648170357       11.2218679490
  H        22.0495884056        5.9108145803        9.9806437396
  H        23.7980864959        5.7814532607       14.7669163502
  H        44.9535190568       34.3898487593        9.6947322463
  H        44.9021538351       34.2069331012        22.480493719438
  H        40.6657348738       33.2085371171       10.8530721609
  H        23.1499524177        1.9575878664        8.0025632802
  H        25.7681291183       19.6464059716        19.917440114038
  H        23.6068508544       19.7003188725        18.673726095438
  H        22.2936830502       16.2067034351        20.812011975938
  H        24.4611702065       16.1639635413        22.054900155038
  H        23.7023129528       17.6825324584        17.227047164638
  H        35.1239637161       15.4286107430        19.926100511538
  H        37.2502492971       15.3761760985        18.625135919838
  H        38.7167012284       18.7165939399        20.905667100738
  H        36.5834835897       18.7522486474        22.209604474938
  H        37.2247850893       17.3621956143        17.231560899338
  H        20.3162911745       17.9560632778        20.633891979438
  H        35.2346765701       15.4654057694       12.0020148710
  H        37.3486850951       15.4378637791       13.3274764130
  H        38.7121367645       18.9230344285       11.2061747402
  H        36.5913172699       18.9339337375        9.8779450940
  H        37.2407686472       17.4151933401       14.7923213075
  H        35.1782644931       26.6676981693       11.4083711258
  H        28.5047823176       21.1066381431        23.854158308738
  H        25.7590562712       19.6520788447       12.1449189248
  H        23.5783586149       19.7131126098       13.3672528724
  H        22.2824061261       16.2232877091       11.2129984908
  H        24.4638678257       16.1800880374        9.9896396528
  H        23.6940893032       17.6854637122       14.7897096810
  H        29.0291073028       21.8004849954        9.7300156762
  H        29.1964386517       21.6979215816        22.520745826738
  H        32.0674519871       18.4860861026       10.9211974689
  H        27.3719651826       18.9869168857        8.1059968560
  H        14.8544852541       19.6801886243       12.0972729808
  H        17.0241459380       19.7427539220       13.3321062234
  H        18.3035219811       16.2038762965       11.2495636710
  H        16.1304557971       16.1580050165       10.0132619017
  H        16.9113511191       17.7368591052       14.8044110545
  H        46.0706202896       15.4446050234       12.0621251498
  H        43.9438960069       15.4129214815       13.3689908025
  H        42.5777731475       18.8737781592       11.2100279988
  H        44.7023959043       18.8781794264        9.8904955748
  H        44.0261622416       17.3508588154       14.8346682671
  H        20.2967664767       17.9628688813       11.3992130836
  H        46.0576773581       15.3850143144        20.019706647038
  H        43.9291473011       15.3065848913        18.721544439938
  H        42.5040037341       18.7520482595        20.865472426438
  H        44.6402651096       18.8183483968        22.163345704438
  H        44.0106821275       17.2956115482        17.273465986938
  H        46.1983643828       26.6823859649        20.613023501738
  H        52.7410000963       21.0625796537        8.1946377995
  H        14.8663431466       19.6823296303        19.901592785138
  H        17.0597848254       19.7565344424        18.703605930338
  H        18.3016258765       16.1943555711        20.768630099438
  H        16.1111053858       16.1452692241        21.978120367238
  H        16.9187799461       17.7357816587        17.243393934438
  H        52.3219077457       21.6734708146        22.284674790938
  H        52.0130268221       21.7021474164        9.4954800763
  H        49.0669628845       18.6076150218        21.193930598638
  H        13.2467820699       19.0167453407        23.965210484338
  H        29.9527280366       12.4737823578       12.2257104305
  H        28.8888471151       10.5510027775       13.4167729066
  H        25.2759373573       11.1574124762       11.1629610031
  H        26.3548475259       13.0714993428        9.9702474201
  H        27.1550036429       11.6746918422       14.7826641495
  H        31.0233487242       22.7513194662       12.0351220630
  H        32.0336080980       24.6262305758       13.3298990193
  H        35.7149817682       24.1269332807       11.1616061653
  H        34.6839728497       22.2580828233        9.8584104279
  H        33.7086329222       23.5552495619       14.7647212684
  H        25.7434240740        8.5874315939       11.3799892113
  H        30.9175092432       22.6414715612        19.872737872338
  H        31.9307540083       24.5172469373        18.579687731638
  H        35.5237762093       24.1797217913        20.922374799638
  H        34.4900586170       22.3156367597        22.222073293038
  H        33.6527359727       23.5470553448        17.201236951638
  H        40.5949492229       17.0090760060        20.641779377938
  H        32.5001421209       14.0907513997        23.786386168838
  H        29.8288988786       12.5309315859        19.887800278838
  H        28.8045516100       10.6368417265        18.622060094338
  H        25.1614095154       11.1244984736        20.857047200238
  H        26.2086864528       12.9987407262        22.137639298938
  H        27.1189229847       11.6902509544        17.219461504238
  H        33.3567965923       14.3486948969        22.446536745638
  H        33.4075363292       14.2198746900        9.6242780136
  H        31.9919492883       18.4334468191        21.033413241438
  H        30.1433906952       14.1966839380        8.1243248934
  H        16.1182719256        2.9625091261       12.1297943495
  H        14.9525139698        4.8192663392       13.3225066558
  H        17.3643185063        7.6855077143       11.2097450758
  H        18.5136077181        5.8181854429       10.0099485899
  H        16.7527586835        5.7391152916       14.7712768796
  H        44.8282097316       32.1400244710       11.9767658565
  H        45.9373482606       30.3410227641       13.3061751471
  H        43.6816498676       27.3780556318       11.1525816113
  H        42.5991726106       29.1900004574        9.8099284815
  H        44.2301052599       29.4366505902       14.7687330717
  H        14.8490193436        8.5448043366       11.3631300115
  H        44.9002838072       32.2338635424        19.922133547138
  H        46.0250238212       30.4127654965        18.642518335438
  H        43.7620181059       27.4839908347        20.834067794938
  H        42.6443796965       29.3176783045        22.113197530538
  H        44.2682838292       29.4704928179        17.207818884238
  H        35.0027824067       26.6308050638        20.638835011538
  H        36.6052074617       35.1338187119        8.1806297283
  H        16.1435837641        3.0127087615        19.893552226138
  H        14.9739237962        4.8560246549        18.677812599338
  H        17.3954868154        7.7470698298        20.744949526738
  H        18.5424706778        5.8931053783        21.972743164938
  H        16.7643591172        5.7553528975        17.208842583838
  H        36.2788019557       34.4820706672        22.263140847938
  H        36.3807232092       34.2089864326        9.4996881284
  H        40.5787416892       33.2014486861        21.144154989838
  H        17.4704848379        1.9468635406        23.963733368938
  H        29.2865103199       19.4181137126       12.5049803632
  H        28.7513457741       18.8635048725        19.720510115338
  H        31.8614655530       15.9008929004        19.444200424338
  H        31.3301443890       15.5945146333       12.4527343907
  H        28.0251316630       18.0634055379       14.1532194576
  H        29.4355289247       15.5574501226       14.4708452396
  H        32.7166635659       17.2797800914        17.253180185438
  H        18.8529281672        0.8687657873       12.3351384049
  H        40.5284055403       35.2290214819        19.942084396838
  H        42.3228568240       34.4181797563        19.580611824338
  H        22.0876505291        0.6923199552       12.3516373962
  H        11.5966038128       18.7131873826       12.3827422546
  H        52.2646097357       18.4315795263        19.666996606938
  H        49.2559725221       16.4768286885        19.573748184738
  H        10.1506278103       15.7980582020       12.2923593973
  H        50.8499356180       17.6923130834        19.943949265538
  H        10.0462447603       17.3945436039       12.0519752224
  H        20.2142018236        0.0021477121       12.0420639254
  H        39.1836168259       36.1241250729        19.675908457238
 Ni        30.5638152192       17.6934237125        18.572853569438
 Ni        31.0283301229       16.4034074584       15.987532315638
 Ni        29.4687525003       18.1286680112        16.236583205538
 Ni        30.0958831616       17.3769346900       13.0789229858
  O        10.6498937063       14.3651100001        21.475570341938