     576
 i =      240, E =     -4780.0560839677
  C        11.8589482526       14.0535165484        21.731262907438
  C        12.4564346713       12.8905586378        21.013032044238
  C        11.7046006322       12.1713542466        20.071691223738
  C        12.2810197239       11.1091872429        19.379326526038
  C        13.6217062741       10.7396656616        19.606840466338
  C        14.3550749453       11.4436401133        20.579852580338
  C        13.7821605078       12.5085927991        21.271379858338
  C        14.2612334025        9.6490178338        18.833413929738
  C        14.2564177511        9.6568890713        17.411717314538
  C        13.7431335396       10.7589627292        16.657823202538
  C        49.1269062226       21.2331292144        21.869436115538
  C        48.5501294898       22.4011734435        21.142319198338
  C        49.3001276071       23.0684481867        20.161304587438
  C        48.7331901949       24.1076101973        19.428110476238
  C        47.4027108976       24.5093240682        19.656865054338
  C        46.6718391970       23.8605707811        20.670504788338
  C        47.2343018442       22.8156520214        21.399830808138
  C        46.7723599756       25.5869814166        18.859623184138
  C        46.7611418134       25.5573051753        17.437866585438
  C        47.2609093065       24.4421289293        16.694386090938
  C        14.8603711931        8.5705781920        16.698434839138
  C        14.8921534870        8.5971502795        19.510041622238
  C        49.1132810514       21.2034254831       10.1454609518
  C        48.5278480653       22.3648153627       10.8727478922
  C        49.2670355192       23.0255177741       11.8656702786
  C        48.6906677031       24.0600790131       12.5971258116
  C        47.3602837509       24.4568381678       12.3587823651
  C        46.6399135808       23.8119561483       11.3352283390
  C        47.2135099989       22.7760402206       10.6034857732
  C        46.7218022097       25.5318417405       13.1497546054
  C        46.7332537476       25.5280948976       14.5714614326
  C        47.2486160703       24.4288388249       15.3278353588
  C        40.6358462000       17.1424184776       15.3226212646
  C        40.6529635731       17.1702572357       12.5139906600
  C        11.8830629875       14.0864847164       10.2854982150
  C        12.4725016597       12.9108348661       10.9898719328
  C        11.7148439443       12.1773528790       11.9156405952
  C        12.2814985814       11.0948904660       12.5839881551
  C        13.6204955055       10.7215646362       12.3525374246
  C        14.3585960239       11.4374714177       11.3920962625
  C        13.7931491697       12.5186506180       10.7194309994
  C        14.2540339558        9.6247160447       13.1228740205
  C        14.2526341206        9.6445848125       14.5447097348
  C        13.7425606616       10.7534411972       15.2917794992
  C        22.5111781837        3.2454936013        21.743197103138
  C        23.2217048596        4.3537458243        21.044940355638
  C        24.2212351256        4.0807267271        20.099413620338
  C        24.8423456798        5.1250228217        19.419107642138
  C        24.4791593193        6.4645356866        19.663509280238
  C        23.5082657409        6.7290714930        20.646525420438
  C        22.8830114329        5.6868291498        21.325571774638
  C        25.0771256957        7.5753901346        18.888352553238
  C        25.0545356938        7.5650651294        17.466722228338
  C        24.3598570633        6.5605042903        16.720621698138
  C        38.2988734443       31.9287282772        21.841990698838
  C        37.5583095395       30.8398501521        21.139757586738
  C        36.5928059422       31.1472328944        20.168790597038
  C        35.9634779937       30.1295148082        19.457150423438
  C        36.2846298832       28.7785508195        19.693762999338
  C        37.2198526172       28.4784226538        20.702077628938
  C        37.8531674726       29.4952464947        21.413019138838
  C        35.6739617978       27.6910507018        18.894838654338
  C        35.7132138830       27.7063372067        17.473190152138
  C        36.4293750773       28.7050116301        16.740443423738
  C        25.6741151045        8.6366404217        16.746412490538
  C        25.6624033114        8.6569511619        19.559262450938
  C        38.3311883190       31.9614747177       10.1602103702
  C        37.6151205643       30.8883164945       10.9105471973
  C        36.6821709214       31.1984903324       11.9119826975
  C        36.0725454393       30.1818501046       12.6452418164
  C        36.3810114593       28.8285156429       12.4010282652
  C        37.2952792160       28.5280425896       11.3726415986
  C        37.9067548259       29.5413582427       10.6406323614
  C        35.7648494049       27.7308633198       13.1827944025
  C        35.7597648477       27.7266240988       14.6052743161
  C        36.4502739612       28.7155386227       15.3740683536
  C        46.1353034349       26.6207611390       15.2816077301
  C        46.0879937868       26.5802912688       12.4737114479
  C        22.4613725267        3.2568543549       10.2590404663
  C        23.1547464137        4.3657305263       10.9828170614
  C        24.1541617409        4.0805701214       11.9270190549
  C        24.7809078419        5.1111209524       12.6239277769
  C        24.4292014884        6.4574155853       12.3995505817
  C        23.4531714130        6.7356634447       11.4236607959
  C        22.8215497677        5.7054812339       10.7274869523
  C        25.0574810350        7.5572928226       13.1744283522
  C        25.0447887868        7.5550836619       14.5973987733
  C        24.3525542518        6.5574461501       15.3539502063
  C        26.6293440005       17.8621397263        21.743560931938
  C        25.3233784021       17.9176132297        21.018697951638
  C        25.0774112851       18.8958164878        20.042970029338
  C        23.8586492284       18.9223068897        19.366593084938
  C        22.8536034068       17.9717571482        19.640875616538
  C        23.0985527188       17.0165428016        20.645349109438
  C        24.3161738813       16.9871797751        21.322250192738
  C        21.5781157065       17.9541503829        18.881595579038
  C        21.5763401344       17.9148660404        17.459593372038
  C        22.7801050245       17.7715625505        16.699648921938
  C        34.4746954810       17.2502059501        21.948026877738
  C        35.7624028306       17.1868207469        21.198657231238
  C        35.9530864272       16.2108475096        20.208220168338
  C        37.1252679569       16.1918986757        19.457537545538
  C        38.1369449531       17.1460293422        19.680193837838
  C        37.9489639185       18.1014747813        20.696984300538
  C        36.7737150219       18.1274589306        21.443322419938
  C        39.3865590391       17.1474249368        18.887568225038
  C        39.3799658211       17.1587336094        17.466268464338
  C        38.1719761207       17.2775017046        16.709726774538
  C        20.3293174961       17.9320759588        16.752479495138
  C        20.3537608756       17.9631928552        19.565432863838
  C        34.4784490992       17.2444303375       10.1811183783
  C        35.7797825126       17.1740091319       10.9055934244
  C        35.9862112466       16.1989631877       11.8928335786
  C        37.1713989711       16.1814693390       12.6222008716
  C        38.1763982023       17.1387627858       12.3836723445
  C        37.9753179764       18.0890379628       11.3653052874
  C        36.7882962312       18.1116552118       10.6384831618
  C        39.4223646139       17.1579603685       13.1792308057
  C        39.3985874290       17.1670590608       14.6001807192
  C        38.1809840908       17.2806019307       15.3430280843
  C        35.1165193629       26.6519342305       15.3051469929
  C        35.1784564087       26.6601381267       12.4956985052
  C        26.5706794303       17.8271624043       10.3265330534
  C        25.2562614833       17.8703245213       11.0315916399
  C        24.9952773850       18.8658884477       11.9850609838
  C        23.7763231656       18.8884496460       12.6566417414
  C        22.7902081019       17.9149469068       12.3993849863
  C        23.0464571131       16.9439855388       11.4144240584
  C        24.2657495252       16.9195256989       10.7404326463
  C        21.5262122395       17.8939765909       13.1711596810
  C        21.5497671670       17.8820163829       14.5925095127
  C        22.7673604797       17.7556486982       15.3337431565
  C        14.0461946501       17.8288398608       10.2882380334
  C        15.3501930448       17.8853156191       11.0126966813
  C        15.6071772277       18.8877185252       11.9609626683
  C        16.8162357547       18.9071960256       12.6533883769
  C        17.8018468739       17.9270861543       12.4193385811
  C        17.5497410682       16.9492648032       11.4386018009
  C        16.3402052381       16.9251305783       10.7478120533
  C        19.0705070423       17.9078721471       13.1877729848
  C        19.0688342534       17.9060336715       14.6101897174
  C        17.8620822309       17.8111870141       15.3725064454
  C        46.8064758025       17.2198044346       10.1592684078
  C        45.5180498454       17.1621650929       10.9067655376
  C        45.3119305542       16.1881333736       11.8957080672
  C        44.1315199305       16.1757681816       12.6337001003
  C        43.1286696751       17.1376572697       12.4038768413
  C        43.3321025283       18.0913241154       11.3884915356
  C        44.5131256208       18.1076256142       10.6516360392
  C        41.8765919796       17.1540200401       13.1926604586
  C        41.8826191972       17.1546575744       14.6141559657
  C        43.0921274866       17.2481038882       15.3719141461
  C        20.3156009245       17.9150408814       15.3178936662
  C        20.2941675502       17.8865412352       12.5048189539
  C        46.7878942948       17.2314796120        21.880144639638
  C        45.4855002933       17.1290108717        21.165259587738
  C        45.2657236073       16.1326625817        20.202530585138
  C        44.0785293295       16.1115191970        19.475448073538
  C        43.0839723095       17.0837592309        19.695440387538
  C        43.2936808832       18.0493509776        20.697202505238
  C        44.4819112401       18.0769650164        21.419171336038
  C        41.8391495786       17.1120257562        18.898930857238
  C        41.8637079339       17.1305401096        17.478669645238
  C        43.0832740918       17.2338530001        16.738262589238
  C        46.1530806644       26.6371929322        16.716162300038
  C        46.1626785526       26.6562209074        19.525785671338
  C        14.0462603730       17.8331281855        21.698501293538
  C        15.3675269736       17.9113284055        21.008245594138
  C        15.6366064545       18.9262127878        20.077535676538
  C        16.8650359422       18.9677297174        19.421618681138
  C        17.8531736899       17.9938666432        19.670506397538
  C        17.5909672178       17.0082226086        20.639665621738
  C        16.3643342577       16.9659047974        21.298862523838
  C        19.1202326346       17.9715215706        18.900046033538
  C        19.0947688201       17.9381572902        17.478500780138
  C        17.8747534839       17.8253530735        16.738639883338
  C        28.8073177352       14.0906528100       10.3855984203
  C        28.1919456159       12.9198634336       11.0755708404
  C        28.9058065460       12.1984966740       12.0440977402
  C        28.3057326494       11.1252777238       12.6978131443
  C        26.9775251253       10.7509553532       12.4091433292
  C        26.2861019236       11.4540939385       11.4061717353
  C        26.8840050136       12.5268563453       10.7497209282
  C        26.3060374073        9.6733242223       13.1712695327
  C        26.2848197861        9.7050225293       14.5925460032
  C        26.7797929512       10.8222275820       15.3377224803
  C        32.1800907402       21.2426702545       10.1438768494
  C        32.7758623245       22.4093153517       10.8639189276
  C        32.0202321859       23.0961194634       11.8269120995
  C        32.5875313845       24.1365937434       12.5566920221
  C        33.9269849469       24.5181031681       12.3462290472
  C        34.6659635452       23.8489573632       11.3523468331
  C        34.1004059863       22.8037054275       10.6234518930
  C        34.5515851920       25.5940659913       13.1505931763
  C        34.5264490762       25.5702810665       14.5724200488
  C        34.0003481807       24.4615307878       15.3081855580
  C        25.6752589157        8.6271693266       15.3115721778
  C        25.6746726038        8.6186429033       12.4984163526
  C        32.0802003754       21.2058027319        21.872136161638
  C        32.6457092478       22.3723758394        21.130361103838
  C        31.9022720069       23.0369825019        20.142245036438
  C        32.4752415819       24.0742517515        19.407611115738
  C        33.8042448906       24.4793188059        19.643928719038
  C        34.5280611560       23.8300643872        20.662744992538
  C        33.9614448872       22.7877915440        21.390991568138
  C        34.4443123120       25.5645157301        18.862965475838
  C        34.4687450172       25.5565244361        17.440922637438
  C        33.9709385005       24.4560298841        16.674549201838
  C        40.6259192539       17.1338617137        16.756501343538
  C        40.6101293244       17.1400154173        19.565716795438
  C        28.7132969868       14.0958547122        21.807598239238
  C        28.0938882184       12.9558371871        21.070399980838
  C        28.8286044388       12.2470772636        20.106900439638
  C        28.2442162755       11.1928606640        19.410321485938
  C        26.9081068464       10.8162873619        19.653093116038
  C        26.1889387944       11.5117618999        20.643411238138
  C        26.7713725632       12.5695509424        21.340086727138
  C        26.2701241599        9.7217577536        18.881664354638
  C        26.2688142180        9.7294261627        17.459381119638
  C        26.7702806799       10.8353993087        16.703610403638
  C        18.1354308039        3.1811588353       10.3172637757
  C        17.4062547617        4.2783140220       11.0158516512
  C        16.3902904703        4.0000331092       11.9431530323
  C        15.7426460422        5.0400644834       12.6066067878
  C        16.0948291643        6.3837581040       12.3670782896
  C        17.0845247586        6.6532112199       11.4036155333
  C        17.7335589674        5.6158209660       10.7385980246
  C        15.4705137007        7.4914444590       13.1301314331
  C        15.4856616916        7.4906231904       14.5518387866
  C        16.1872752982        6.4970342444       15.3049854007
  C        42.9459145764       31.8596615938       10.0728755539
  C        43.6463264139       30.7719759012       10.8167895319
  C        44.5914515244       31.0933359243       11.8032386997
  C        45.1971473675       30.0878100502       12.5509469299
  C        44.8712091295       28.7346822276       12.3357205875
  C        43.9458959016       28.4203151821       11.3220277771
  C        43.3371127440       29.4254303501       10.5739335310
  C        45.4886919845       27.6553839966       13.1389741332
  C        45.4926977453       27.6809418009       14.5606719254
  C        44.8056901881       28.6890256129       15.3073235301
  C        14.8565801596        8.5630261642       15.2642226845
  C        14.8753588383        8.5632852899       12.4515395187
  C        42.9464817757       31.9617204934        21.798800970738
  C        43.6918904895       30.8855756256        21.085516326738
  C        44.6560584095       31.1915321585        20.112805999338
  C        45.2776525759       30.1719705023        19.395105696438
  C        44.9543468968       28.8215991438        19.633090844438
  C        44.0214896707       28.5239107452        20.644462259038
  C        43.3931662050       29.5406359780        21.356639759638
  C        45.5632322675       27.7241756271        18.847786029438
  C        45.5332879819       27.7174334602        17.426488015038
  C        44.8270001243       28.7076749330        16.673510550738
  C        35.0898838627       26.6435303859        16.740325060438
  C        35.0583785055       26.6189143516        19.550939337738
  C        18.1487537441        3.2471558876        21.696311597038
  C        17.4303961789        4.3438856538        20.986867959138
  C        16.4149437674        4.0526834713        20.063521440338
  C        15.7666482572        5.0833598732        19.388226174338
  C        16.1215373521        6.4285725713        19.610809199138
  C        17.1131482891        6.7118925765        20.567845488238
  C        17.7608137344        5.6829391632        21.247542640438
  C        15.4909330033        7.5242224184        18.838405504138
  C        15.4966294353        7.5074810527        17.417281369338
  C        16.1934936434        6.5058459343        16.670588986438
  H        10.6723583958       12.4652426496        19.894933876638
  H        11.6946426912       10.5504496170        18.653057632038
  H        15.3922628143       11.1694050878        20.761241876338
  H        14.3518058424       13.0721588035        22.006412958238
  H        13.3760913311       11.6310532402        17.191168651938
  H        50.3227984366       22.7483142061        19.976505294438
  H        49.3196530832       24.6228129098        18.670468701238
  H        45.6424111290       24.1614798848        20.853810994538
  H        46.6634381800       22.2904503617        22.162063264238
  H        47.6294985488       23.5757869589        17.236093981638
  H        14.8727297832        8.5885647645        20.598354060138
  H        50.2870796486       22.7026371075       12.0605748432
  H        49.2690758517       24.5755383944       13.3606164344
  H        45.6105525849       24.1092850150       11.1460890451
  H        46.6527852357       22.2538453172        9.8318713667
  H        47.6074095782       23.5517404850       14.7969092103
  H        40.6584770542       17.1362187856       11.4262479090
  H        48.6872025901       14.0948593931        23.789890386338
  H        10.6812396579       12.4661352977       12.0927229241
  H        11.6896328503       10.5242358116       13.2964170960
  H        15.3942220516       11.1600193368       11.2065751174
  H        14.3656439353       13.0883359245        9.9912742023
  H        13.3757924440       11.6220841359       14.7531490837
  H        47.9302438223       14.2182992778        9.7109272778
  H        47.7801140008       14.3734754890        22.485177579938
  H        49.0843852969       18.5524809928       10.8676977859
  H        10.4163603097       14.1342281830        7.9987917308
  H        24.4891659210        3.0440499129        19.907761913138
  H        25.6177383249        4.9132549051        18.686079303938
  H        23.2204953388        7.7600084136        20.841858925538
  H        22.1111277857        5.8817757537        22.065992090438
  H        23.8004071959        5.8023362458        17.260756249138
  H        36.3605624387       32.1914703576        19.973424628938
  H        35.2156099380       30.3724240132        18.705451650538
  H        37.4760380026       27.4382559426        20.892682117638
  H        38.6009102888       29.2706939209        22.170050207838
  H        36.9933831780       29.4526922433        17.290412177838
  H        25.6929464018        8.6427775437        20.647272057838
  H        36.4540307548       32.2429237004       12.1124334589
  H        35.3423920738       30.4293384347       13.4126505603
  H        37.5475451479       27.4877861779       11.1776524510
  H        38.6333718012       29.3133680193        9.8645413919
  H        37.0311887299       29.4711132481       14.8528347995
  H        46.1097001151       26.5877897094       11.3856808586
  H        44.6685134089       35.1163682962        23.803671944438
  H        24.4309797926        3.0424694095       12.0965552993
  H        25.5594257155        4.8819564991       13.3484892897
  H        23.1697068018        7.7701439054       11.2405853225
  H        22.0523212388        5.9188237302        9.9888517850
  H        23.7867012060        5.7975973693       14.8227543613
  H        44.9546286579       34.3910948867        9.6955916005
  H        44.9023498230       34.2071227794        22.480289752038
  H        40.6671578605       33.2098285898       10.8535480753
  H        23.1502643129        1.9585179138        8.0055654940
  H        25.8529777838       19.6290159999        19.831474151138
  H        23.6702814250       19.6882035380        18.617241103638
  H        22.3351273474       16.2730865532        20.865416591238
  H        24.5158911292       16.2372942330        22.084024079538
  H        23.7192773138       17.6427261155        17.229591203438
  H        35.1647555275       15.4809335922        20.037482938038
  H        37.2740152633       15.4288146210        18.696575766538
  H        38.7240575022       18.8446991969        20.872164484538
  H        36.6098566050       18.8797695967        22.211403629938
  H        37.2325526834       17.3963759143        17.241998925238
  H        20.3618107026       18.0138480441        20.652857604038
  H        35.1984980881       15.4738164638       12.0843317949
  H        37.3323865696       15.4219201938       13.3840857333
  H        38.7462658475       18.8335688530       11.1778136265
  H        36.6100154026       18.8619108374        9.8717213285
  H        37.2481463039       17.4008857474       14.7998297524
  H        35.1631890348       26.6836362942       11.4077010808
  H        28.5106020917       21.0873161967        23.982582841838
  H        25.7608650511       19.6123861500       12.1838485838
  H        23.5732514771       19.6642813711       13.3916437898
  H        22.2937910338       16.1851207977       11.2105895270
  H        24.4800752054       16.1579179915        9.9945240245
  H        23.6968514444       17.6158513622       14.7898794125
  H        29.0000746010       21.7206500282        9.7664365018
  H        29.1171728885       21.7612218785        22.596555929438
  H        32.0954049903       18.5556239800       10.9837352382
  H        27.3975278418       19.0696492023        8.0772842504
  H        14.8490069047       19.6468411765       12.1398939269
  H        17.0125428736       19.6904776003       13.3823803149
  H        18.3008332392       16.1850890019       11.2492899754
  H        16.1333650706       16.1570317927       10.0064277007
  H        16.9191405681       17.6947488557       14.8461963806
  H        46.0936392599       15.4546458336       12.0787763911
  H        43.9710068357       15.4128978610       13.3923217930
  H        42.5651855329       18.8416008410       11.2076577274
  H        44.6878704571       18.8579511718        9.8841640116
  H        44.0333921806       17.3626784898       14.8419612843
  H        20.2875789481       17.9186189577       11.4167599011
  H        46.0408449985       15.3905369434        20.025600798838
  H        43.9088334843       15.3394881421        18.728103232538
  H        42.5292106283       18.8034341427        20.872211970638
  H        44.6677635048       18.8410618807        22.169856908838
  H        44.0177458223       17.3363147941        17.282294655938
  H        46.1998700078       26.6828858243        20.613215961638
  H        52.7412466583       21.0626170656        8.1946887670
  H        14.8729145003       19.6764147414        19.884592874938
  H        17.0717763635       19.7577442320        18.702820022438
  H        18.3449980108       16.2498029079        20.840078405938
  H        16.1475177612       16.1915323706        22.030709621338
  H        16.9413707959       17.7195704095        17.283365850138
  H        52.3225994659       21.6733847439        22.284093708838
  H        52.0132646021       21.7020854378        9.4955831012
  H        49.0681770192       18.6078073458        21.193826134038
  H        13.2477931259       19.0161005849        23.967076877838
  H        29.9269238810       12.4958664786       12.2728000958
  H        28.8615187003       10.5645665284       13.4462128771
  H        25.2596613631       11.1758644771       11.1761401600
  H        26.3472368826       13.0910896995        9.9910255867
  H        27.1417686833       11.6913514186       14.7968786633
  H        30.9913826065       22.7882115873       11.9977796418
  H        31.9951797616       24.6693781641       13.2974633606
  H        35.7027889015       24.1330461513       11.1840014820
  H        34.6768107991       22.2622585287        9.8766933597
  H        33.6428624672       23.5957129602       14.7582689159
  H        25.7103458401        8.5960112791       11.4106375049
  H        30.8765861437       22.7251484795        19.956755925038
  H        31.8911786567       24.5899583183        18.648280777338
  H        35.5562061524       24.1311540470        20.852919249638
  H        34.5277586852       22.2645615717        22.157890886738
  H        33.5909016111       23.5855292837        17.201466675038
  H        40.6044485681       17.1017272902        20.653306251038
  H        32.5178046904       14.1457642820        8.2635255211
  H        29.8618459958       12.5293368441        19.920654824038
  H        28.8231746408       10.6423075371        18.672054780638
  H        25.1549168425       11.2346468490        20.838244475438
  H        26.2114035328       13.1216127973        22.091314245438
  H        27.1239283537       11.7147772602        17.234156310738
  H        33.3045817347       14.2116817036        22.435282327838
  H        33.4095765819       14.3989784714        9.6107790224
  H        32.2056748390       18.5343105470        21.150469139038
  H        30.2258653573       14.1947026517        8.0595989800
  H        16.1179967842        2.9635716971       12.1294240844
  H        14.9530164811        4.8208259033       13.3221072835
  H        17.3673193823        7.6860336008       11.2107481917
  H        18.5159218814        5.8184777801       10.0111022935
  H        16.7540088625        5.7398340776       14.7714785972
  H        44.8274435487       32.1404444248       11.9776790960
  H        45.9367759739       30.3416709573       13.3070910555
  H        43.6838173422       27.3781660405       11.1514537297
  H        42.6010658812       29.1900399432        9.8087383640
  H        44.2305290148       29.4369552988       14.7690417537
  H        14.8518281392        8.5467122875       11.3633126610
  H        44.8993064004       32.2342296346        19.921058870438
  H        46.0242696265       30.4132821509        18.641606476338
  H        43.7651514562       27.4841199438        20.836534354338
  H        42.6472277342       29.3178090324        22.115622643038
  H        44.2687069905       29.4707269598        17.208080522538
  H        35.0126841709       26.6299130784        20.638333806438
  H        36.6054379488       35.1341848409        8.1805962164
  H        16.1437044281        3.0131359215        19.893911394038
  H        14.9742008407        4.8566053565        18.678250680438
  H        17.3969359344        7.7473248901        20.744494865638
  H        18.5439352191        5.8934452895        21.972026649738
  H        16.7651315852        5.7557439554        17.209001340838
  H        36.2789631468       34.4824842012        22.262792187838
  H        36.3812521232       34.2089320105        9.4992332458
  H        40.5802277021       33.2027164592        21.143434054938
  H        17.4711773121        1.9477221091        23.964041318338
  H        29.0283621595       19.2966228981       12.4888309606
  H        30.3739002130       19.5050338879        19.442737069738
  H        31.0529079201       14.9932634635        19.954699740138
  H        31.2038947670       15.5197968648       12.4737827762
  H        28.0399131863       17.7508899655       14.6688133729
  H        29.6206560438       15.0843967008       14.5564461631
  H        31.9324667433       19.9160724829        17.082673453638
  H        31.7466564669       18.3546519954        17.429574072238
  H        28.4061469515       17.5220040321        17.531310861038
  H        32.3723449242       18.3273197869       14.4124472630
  H        18.8542183017        0.8693247495       12.3351682770
  H        40.5281376775       35.2287760831        19.941690102938
  H        42.3255164839       34.4202889427        19.579465125138
  H        22.0878031795        0.6922667622       12.3516141817
  H        11.5968888478       18.7128399521       12.3825957878
  H        52.2649467912       18.4311411677        19.667007927738
  H        49.2553412511       16.4765685297        19.574190296538
  H        10.1500618531       15.7982593071       12.2929596897
  H        50.8500946491       17.6923966291        19.943965458638
  H        10.0461830208       17.3945650370       12.0519524102
  H        20.2158171773        0.0025591715       12.0418175180
  H        39.1839781049       36.1246242071        19.676457356938
 Ni        30.3498495558       16.6036798249        18.569939625138
 Ni        31.4443064532       16.1152798477       15.579916608138