     570
 i =       61, E =     -4745.5798980374
  C        11.8588006106       14.0534446192        21.731370399238
  C        12.4562351293       12.8905292736        21.013173877938
  C        11.7046055857       12.1717214617        20.071343514838
  C        12.2809838080       11.1095317571        19.378999311038
  C        13.6215203146       10.7395983898        19.606832966838
  C        14.3546019533       11.4430306830        20.580481350538
  C        13.7817219733       12.5079923528        21.272010291838
  C        14.2610424320        9.6489611475        18.833403430138
  C        14.2561817246        9.6568392220        17.411703781638
  C        13.7429920254       10.7589426960        16.657784252038
  C        49.1268234170       21.2331146923        21.869527093038
  C        48.5501439779       22.4011046900        21.142529283938
  C        49.3000515573       23.0681136942        20.161211463238
  C        48.7331560670       24.1072816141        19.428027951938
  C        47.4027665778       24.5093014677        19.656932570938
  C        46.6720106932       23.8608065076        20.670852188138
  C        47.2344036186       22.8158782279        21.400205879838
  C        46.7725043043       25.5869617737        18.859638836938
  C        46.7614404522       25.5572907838        17.437873334338
  C        47.2614112059       24.4422376130        16.694338299538
  C        14.8601395920        8.5705242853        16.698420593438
  C        14.8919420939        8.5970645475        19.510038147438
  C        49.1131679234       21.2034769442       10.1453576124
  C        48.5278765885       22.3648949604       10.8723818654
  C        49.2670352736       23.0253489676       11.8655418730
  C        48.6907633387       24.0599157336       12.5970175917
  C        47.3604626601       24.4569910598       12.3586010946
  C        46.6401943174       23.8124223990       11.3347433430
  C        47.2136668543       22.7764952190       10.6029322975
  C        46.7219953932       25.5318950698       13.1496874350
  C        46.7337041759       25.5281718478       14.5713966244
  C        47.2491328155       24.4289553520       15.3277820765
  C        40.6175982737       17.0547934290       15.3238920290
  C        40.6332699418       17.0760739787       12.5141359311
  C        11.8829863291       14.0864371285       10.2855240103
  C        12.4721701298       12.9106051597       10.9896076955
  C        11.7147316812       12.1776347767       11.9159950729
  C        12.2812932173       11.0951684626       12.5843858049
  C        13.6200339964       10.7212001819       12.3523663960
  C        14.3578759153       11.4364981275       11.3912435291
  C        13.7924979043       12.5176847826       10.7185538312
  C        14.2536339986        9.6244813571       13.1228042958
  C        14.2522739714        9.6444567572       14.5446441600
  C        13.7424108489       10.7533966670       15.2917385144
  C        22.5133706308        3.2445837975        21.742668549338
  C        23.2311171165        4.3480583397        21.043288748638
  C        24.2261562246        4.0645407868        20.095852479538
  C        24.8567870560        5.1015360441        19.413154745738
  C        24.5086666037        6.4448942440        19.657444463938
  C        23.5419232542        6.7198093892        20.642010588738
  C        22.9064587864        5.6846336696        21.323115934738
  C        25.1172390572        7.5499171830        18.881192412238
  C        25.0855136784        7.5455288793        17.459668659838
  C        24.3807237611        6.5479894528        16.713848509838
  C        38.2996109914       31.9292464345        21.844042374138
  C        37.5625766522       30.8369106628        21.146752401138
  C        36.5913863517       31.1354208408        20.179051761538
  C        35.9700536778       30.1110086689        19.470390017238
  C        36.3065264832       28.7636919798        19.706621149838
  C        37.2457614153       28.4724477186        20.713512757338
  C        37.8703360243       29.4954988272        21.421884778138
  C        35.7084365127       27.6702387953        18.908490850238
  C        35.7387557318       27.6913899231        17.487205852038
  C        36.4413732557       28.6995270005        16.754366650338
  C        25.7064856020        8.6169531078        16.739942204938
  C        25.7197532789        8.6217473895        19.551587272138
  C        38.3303529015       31.9609418935       10.1617666321
  C        37.6125215394       30.8905185656       10.9149180610
  C        36.6846157053       31.2055962297       11.9199434431
  C        36.0723597573       30.1929477169       12.6569093184
  C        36.3719191269       28.8374503843       12.4133031978
  C        37.2810950788       28.5322682063       11.3813672960
  C        37.8956948723       29.5415403206       10.6458248573
  C        35.7540003234       27.7412356014       13.1973564893
  C        35.7610331977       27.7288067297       14.6200738891
  C        36.4528548352       28.7171442037       15.3880627705
  C        46.1355782666       26.6207253115       15.2815689411
  C        46.0880631507       26.5802994717       12.4736717998
  C        22.4613169712        3.2563367928       10.2577275908
  C        23.1557107588        4.3651433001       10.9799552448
  C        24.1585296835        4.0795338901       11.9202380273
  C        24.7869428713        5.1099025888       12.6154850153
  C        24.4329345042        6.4559411846       12.3935677893
  C        23.4532371603        6.7347186264       11.4216716273
  C        22.8202486132        5.7046486553       10.7267086942
  C        25.0640944271        7.5541193388       13.1676877466
  C        25.0587081683        7.5470420253       14.5906136064
  C        24.3662542440        6.5495568844       15.3472004614
  C        26.6117623045       17.8592328522        21.774754596638
  C        25.3060458157       17.9117901223        21.052927521138
  C        25.0325437044       18.9328002454        20.128424031038
  C        23.8216254442       18.9539301757        19.438982673038
  C        22.8460996995       17.9596743208        19.654826796738
  C        23.1140712395       16.9618893852        20.611161486638
  C        24.3277130265       16.9338640073        21.296630525438
  C        21.5740553712       17.9489978966        18.887735443138
  C        21.5766152881       17.9393160136        17.465141270838
  C        22.7844559584       17.8322289632        16.705819711438
  C        34.4245725280       17.2203375461        21.912913683438
  C        35.7233642698       17.1470128819        21.183782159238
  C        35.9335871407       16.1545683884        20.212999850038
  C        37.1128238251       16.1297860200        19.473584654338
  C        38.1163936441       17.0952638388        19.684420511838
  C        37.9114095691       18.0660821102        20.683923660838
  C        36.7288835651       18.0970748518        21.420153599738
  C        39.3688504879       17.0935212437        18.892468989238
  C        39.3618615508       17.0850603399        17.470112371338
  C        38.1527829826       17.1862840520        16.712460262038
  C        20.3305361962       17.9515980908        16.755328797438
  C        20.3490875335       17.9423255137        19.569122892238
  C        34.4470183279       17.2268507378       10.2002427897
  C        35.7453080582       17.1181586886       10.9203578744
  C        35.9481312974       16.1292862973       11.8950696422
  C        37.1383840079       16.0906390470       12.6171663638
  C        38.1538038836       17.0395871584       12.3855215594
  C        37.9568076292       18.0007801260       11.3762432004
  C        36.7666998959       18.0446695765       10.6568653912
  C        39.4021555480       17.0524497492       13.1804052965
  C        39.3791366376       17.0648787007       14.6020140929
  C        38.1614805568       17.1750534474       15.3455867157
  C        35.1295669124       26.6466014370       15.3204106740
  C        35.1562206908       26.6766213548       12.5105390811
  C        26.5716000983       17.8271809978       10.3205982274
  C        25.2572230284       17.8750349003       11.0270780022
  C        24.9872197701       18.8947717337       11.9523057778
  C        23.7701720950       18.9245575800       12.6273151498
  C        22.7934508440       17.9346876147       12.4002123143
  C        23.0570884556       16.9395117146       11.4416585714
  C        24.2751310205       16.9075658314       10.7649892826
  C        21.5301092546       17.9211425127       13.1744883293
  C        21.5538835565       17.9226519512       14.5962120401
  C        22.7731267092       17.8233801711       15.3393694130
  C        14.0470219847       17.8294215508       10.2884615476
  C        15.3518608231       17.8881895713       11.0128115903
  C        15.6080462211       18.8928022575       11.9591083471
  C        16.8172808854       18.9155885380       12.6514079803
  C        17.8048271829       17.9366955991       12.4197196657
  C        17.5534507618       16.9563611506       11.4411835278
  C        16.3435857996       16.9289824371       10.7504023617
  C        19.0738638942       17.9227931234       13.1888939851
  C        19.0721164621       17.9240703000       14.6113602638
  C        17.8648922992       17.8215857040       15.3718003687
  C        46.8021553198       17.2167202896       10.1594264631
  C        45.5103896450       17.1453143276       10.9053444651
  C        45.3115778453       16.1620629234       11.8874938584
  C        44.1296076097       16.1290050907       12.6234519390
  C        43.1133352638       17.0788317884       12.4007039194
  C        43.3096306289       18.0423271314       11.3923402032
  C        44.4927954070       18.0793617382       10.6571567265
  C        41.8589002616       17.0740341512       13.1908091075
  C        41.8642002155       17.0754149325       14.6134888176
  C        43.0727230896       17.1810444467       15.3713071025
  C        20.3184870287       17.9424994386       15.3203903386
  C        20.2984798670       17.9021005942       12.5074560155
  C        46.7841628396       17.2308240454        21.879005220738
  C        45.4799096858       17.1223540487        21.164363778738
  C        45.2598424821       16.1180012238        20.209479711838
  C        44.0708506177       16.0864754991        19.484784162638
  C        43.0717934438       17.0563161355        19.697548389338
  C        43.2825276907       18.0312227550        20.690557262438
  C        44.4726803706       18.0688866926        21.410520499938
  C        41.8238512207       17.0710179368        18.902304516538
  C        41.8462106865       17.0725863958        17.481065789138
  C        43.0642707410       17.1760930488        16.737941337238
  C        46.1533788777       26.6371490638        16.716125349838
  C        46.1625461008       26.6560955065        19.525766779038
  C        14.0451830324       17.8315514993        21.698227298438
  C        15.3653936317       17.9061006121        21.006617936038
  C        15.6376055564       18.9226556560        20.078907266938
  C        16.8659372289       18.9611075586        19.423088038938
  C        17.8497644943       17.9822596672        19.669261585038
  C        17.5841933842       16.9941853305        20.634765237238
  C        16.3577908345       16.9552239434        21.294115431838
  C        19.1172954376       17.9614375453        18.900910036238
  C        19.0948282440       17.9430727529        17.479361113538
  C        17.8759073017       17.8299799082        16.737773771938
  C        28.8132480051       14.0947782770       10.3893714559
  C        28.2022121441       12.9200296714       11.0758496391
  C        28.9243590266       12.1760925661       12.0205777394
  C        28.3233000308       11.1022214863       12.6725564286
  C        26.9859944618       10.7469104361       12.4032639450
  C        26.2861341246       11.4697456337       11.4204426182
  C        26.8845523919       12.5443782935       10.7676768475
  C        26.3157680160        9.6674691944       13.1646873152
  C        26.3041688641        9.6932406621       14.5859521554
  C        26.8051356196       10.8071679097       15.3316421189
  C        32.1713041824       21.2461338824       10.1902892068
  C        32.7527322510       22.4173334576       10.9041395899
  C        32.0015161324       23.0970133496       11.8751494992
  C        32.5704865502       24.1424473257       12.5963352430
  C        33.9034733456       24.5352140567       12.3661885860
  C        34.6349335221       23.8755154860       11.3609310442
  C        34.0700841849       22.8242836914       10.6430675055
  C        34.5362631532       25.6074361517       13.1667783746
  C        34.5336292358       25.5685334501       14.5881866057
  C        34.0287385161       24.4479338639       15.3210302944
  C        25.6969714431        8.6140670645       15.3050978687
  C        25.6785910984        8.6168740496       12.4914081291
  C        32.1192011687       21.2041357355        21.914159768038
  C        32.7091084911       22.3566302539        21.176023555338
  C        31.9784609205       22.9898158799        20.157556751138
  C        32.5536776891       24.0171378146        19.413487169138
  C        33.8728358994       24.4428155329        19.666620136238
  C        34.5862904652       23.8196520464        20.710180682838
  C        34.0177742885       22.7851329826        21.449310667638
  C        34.5058418907       25.5279935198        18.879828697538
  C        34.5177142749       25.5273069002        17.456570163738
  C        34.0217488154       24.4274775208        16.687860689538
  C        40.6079404136       17.0596350845        16.759041097438
  C        40.5939703749       17.1016788693        19.569261183738
  C        28.7406598149       14.0649309796        21.813250500838
  C        28.1369561628       12.9150705280        21.079570952538
  C        28.8668639454       12.2473288991        20.084092605538
  C        28.2913184722       11.1893206402        19.384454982538
  C        26.9701196615       10.7758679670        19.651125691738
  C        26.2592801243       11.4325603740        20.673782718238
  C        26.8331776775       12.4890690248        21.377916271638
  C        26.3289961871        9.6871834161        18.875201212738
  C        26.3116353880        9.7041263760        17.452888601938
  C        26.8055091690       10.8139998675        16.697596597038
  C        18.1355062479        3.1809777965       10.3171236991
  C        17.4062575712        4.2782499961       11.0158423299
  C        16.3901538047        3.9998943156       11.9429286843
  C        15.7424020264        5.0398700439       12.6064225758
  C        16.0946577873        6.3835550407       12.3670971714
  C        17.0845025310        6.6530979943       11.4038276685
  C        17.7336162696        5.6157504403       10.7387794070
  C        15.4702129859        7.4912294918       13.1301264313
  C        15.4853816327        7.4905225615       14.5518450827
  C        16.1869607055        6.4969111498       15.3049977373
  C        42.9458753671       31.8596136694       10.0729266046
  C        43.6463041464       30.7718903177       10.8169125297
  C        44.5918027963       31.0932365957       11.8029821486
  C        45.1975148938       30.0877096460       12.5506883619
  C        44.8711457125       28.7346497658       12.3357955184
  C        43.9453471453       28.4202793931       11.3225747177
  C        43.3365250864       29.4254118786       10.5745187582
  C        45.4887262861       27.6553285290       13.1389722830
  C        45.4928547681       27.6808633283       14.5606709150
  C        44.8056830718       28.6888419812       15.3073054914
  C        14.8563403900        8.5629830150       15.2641961335
  C        14.8749362403        8.5629800277       12.4515227873
  C        42.9463705469       31.9616759031        21.798846039338
  C        43.6916365120       30.8854431020        21.085307566438
  C        44.6562757142       31.1913398614        20.113075156638
  C        45.2778560441       30.1717508677        19.395368811238
  C        44.9540509216       28.8214486812        19.632967331238
  C        44.0205080347       28.5237810223        20.643679158738
  C        43.3922182163       29.5405600962        21.355836695238
  C        45.5631340377       27.7240339566        18.847732462438
  C        45.5333223106       27.7172521162        17.426430683838
  C        44.8269621444       28.7074646459        16.673489451738
  C        35.1196226976       26.6259735758        16.755609582938
  C        35.1120025563       26.5884009789        19.565510600938
  C        18.1487461763        3.2470367613        21.696384371338
  C        17.4302227049        4.3439006873        20.987018786738
  C        16.4146029526        4.0526479885        20.063897974938
  C        15.7662964197        5.0832835224        19.388503317938
  C        16.1213583371        6.4284685757        19.610850995838
  C        17.1132696003        6.7118470888        20.567542549038
  C        17.7609518651        5.6829259021        21.247310357238
  C        15.4907479661        7.5241430568        18.838427307238
  C        15.4964652764        7.5074720478        17.417290796138
  C        16.1932073465        6.5057490998        16.670603353838
  H        10.6725110422       12.4658985844        19.894223513238
  H        11.6947471465       10.5511209116        18.652366892438
  H        15.3915989536       11.1683607515        20.762308793738
  H        14.3512076124       13.0710737925        22.007537052538
  H        13.3760555472       11.6311128942        17.191067296038
  H        50.3226427647       22.7478376393        19.976223084038
  H        49.3195794346       24.6223236272        18.670250476038
  H        45.6426996437       24.1619842661        20.854376364338
  H        46.6635305740       22.2910120241        22.162662521338
  H        47.6300037190       23.5758567230        17.235977965338
  H        14.8724960501        8.5883628872        20.598349226338
  H        50.2869909243       22.7023092819       12.0606115991
  H        49.2691248832       24.5751856262       13.3606692834
  H        45.6109388638       24.1100127267       11.1454220545
  H        46.6529183185       22.2546164468        9.8311232220
  H        47.6079927392       23.5518626690       14.7968978369
  H        40.6382675406       17.0447150680       11.4262247605
  H        48.6871961961       14.0949837506        23.789814473938
  H        10.6813235003       12.4668205401       12.0935583116
  H        11.6895695028       10.5249051972       13.2972409488
  H        15.3932376074       11.1584639995       11.2051311943
  H        14.3648482087       13.0868589268        9.9898816773
  H        13.3756488931       11.6220520444       14.7531305384
  H        47.9301953169       14.2183559226        9.7109105577
  H        47.7800374005       14.3739121646        22.485262040738
  H        49.0833071480       18.5522302087       10.8673036816
  H        10.4161629488       14.1343740849        7.9988115026
  H        24.4830300042        3.0250145629        19.904687080338
  H        25.6282800003        4.8807822119        18.678648807738
  H        23.2655892571        7.7538769423        20.837380736638
  H        22.1379761578        5.8884264516        22.064805367138
  H        23.8204166535        5.7907537733        17.254462486138
  H        36.3492410612       32.1773740335        19.983460380738
  H        35.2176885414       30.3451854986        18.720452954838
  H        37.5122682419       27.4347690832        20.903358771638
  H        38.6221104191       29.2794484719        22.177248713338
  H        37.0037039366       29.4485846762        17.304141574538
  H        25.7598959469        8.6011594546        20.639163778938
  H        36.4622827749       32.2512558655       12.1204896121
  H        35.3466604441       30.4457154165       13.4268443335
  H        37.5268732850       27.4905377392       11.1859341243
  H        38.6179798876       29.3081468758        9.8672302034
  H        37.0253084894       29.4788834456       14.8664933897
  H        46.1095581972       26.5878274594       11.3856391161
  H        44.6683689271       35.1162384055        23.803703553538
  H        24.4364081514        3.0413995788       12.0877507288
  H        25.5681697833        4.8811030079       13.3372177497
  H        23.1681757594        7.7691634461       11.2409090870
  H        22.0482211055        5.9176168917        9.9908961794
  H        23.7942150212        5.7941490072       14.8163312786
  H        44.9539406025       34.3905922359        9.6953895991
  H        44.9018165680       34.2067630142        22.480505920338
  H        40.6663743855       33.2095992218       10.8536006043
  H        23.1504296764        1.9581833954        8.0052639772
  H        25.7777993551       19.7080326450        19.965614761838
  H        23.6156120584       19.7503551008        18.726994618638
  H        22.3724258994       16.1851791992        20.786274943138
  H        24.5459529735       16.1487823279        22.016916337438
  H        23.7264753614       17.7241872995        17.235791628238
  H        35.1571624705       15.4123368944        20.043504872038
  H        37.2710658746       15.3538613199        18.727764977338
  H        38.6776768761       18.8199885515        20.852269721338
  H        36.5544646963       18.8646236670        22.170707672538
  H        37.2114218397       17.3047193123        17.241956024138
  H        20.3548414782       17.9738464317        20.657262275038
  H        35.1557552151       15.4092714912       12.0864013076
  H        37.2933164984       15.3215161823       13.3706675107
  H        38.7336399902       18.7398842225       11.1918877161
  H        36.5955693726       18.8062272696        9.9000406205
  H        37.2264939686       17.2852199323       14.8037696916
  H        35.1281191781       26.7068212703       11.4229428235
  H        28.5092471650       21.0837111933        23.967268721938
  H        25.7433448069       19.6573074116       12.1243109466
  H        23.5609941648       19.7193627232       13.3400792671
  H        22.3110113833       16.1684266271       11.2606847110
  H        24.4945480383       16.1275220491       10.0398206163
  H        23.7065077821       17.7084541258       14.7962715409
  H        29.0022244774       21.7159880096        9.7683280910
  H        29.1394964106       21.7557375531        22.603907335338
  H        32.0537152112       18.5281620480       11.0172747277
  H        27.4087809295       19.0763376291        8.0945768141
  H        14.8490011644       19.6513568005       12.1367855737
  H        17.0120737242       19.7008777269       13.3786706653
  H        18.3052758355       16.1925837821       11.2530855507
  H        16.1381679794       16.1587278607       10.0108056069
  H        16.9232515456       17.7022965993       14.8438171924
  H        46.1009609847       15.4361224017       12.0677159530
  H        43.9792476193       15.3578021176       13.3758011608
  H        42.5348180851       18.7852475151       11.2144236592
  H        44.6574971787       18.8383082021        9.8957229641
  H        44.0134544123       17.2981468974       14.8409258622
  H        20.2931204260       17.9249236046       11.4191518237
  H        46.0363399467       15.3763446505        20.036472831438
  H        43.9034250956       15.3066523782        18.745010637938
  H        42.5168143549       18.7850718849        20.861392421038
  H        44.6561029437       18.8403561928        22.154374567738
  H        43.9987501331       17.2880694640        17.280137341538
  H        46.1994975525       26.6827540384        20.613205659438
  H        52.7412286373       21.0626997523        8.1947000188
  H        14.8767502083       19.6764412142        19.888758055538
  H        17.0764115834       19.7525649011        18.706986799838
  H        18.3350796925       16.2319113210        20.832311353238
  H        16.1374300911       16.1796760155        22.023615647138
  H        16.9425675742       17.7170823574        17.281098660338
  H        52.3226276088       21.6733731583        22.284060569338
  H        52.0135693415       21.7023607211        9.4957205682
  H        49.0676524115       18.6077130419        21.194063207638
  H        13.2474852243       19.0163227368        23.967025823338
  H        29.9544730093       12.4541900415       12.2311383026
  H        28.8847706653       10.5259495723       13.4047432541
  H        25.2530562167       11.2054072764       11.2041466980
  H        26.3407296655       13.1238426799       10.0257655518
  H        27.1629751592       11.6785111494       14.7913999098
  H        30.9786891160       22.7790625354       12.0630277934
  H        31.9862025763       24.6667825236       13.3493148200
  H        35.6662141376       24.1702859332       11.1781652716
  H        34.6412372163       22.2876136912        9.8892693283
  H        33.6697079727       23.5823508363       14.7716429238
  H        25.7074992091        8.5980918697       11.4033519374
  H        30.9667274212       22.6495272846        19.948802762338
  H        31.9785969660       24.5058938979        18.630231889538
  H        35.6081938738       24.1341793140        20.911675036838
  H        34.5786638612       22.2822599178        22.233788752838
  H        33.6579603625       23.5454527411        17.207612073438
  H        40.5893704410       17.0784580039        20.657366417038
  H        32.5143207401       14.1533467082        8.2509436570
  H        29.8821438183       12.5772733289        19.874317819238
  H        28.8652445069       10.6664968445        18.622479891438
  H        25.2371604100       11.1266109498        20.887217629838
  H        26.2799880947       13.0113987408        22.154883428538
  H        27.1616869604       11.6912537960        17.229705240938
  H        33.2874361895       14.1680317697        22.414366481938
  H        33.4056725633       14.3929818367        9.6077316672
  H        32.2764568156       18.7263690662        21.158916422838
  H        30.2225950107       14.1961267116        8.0894776729
  H        16.1178666195        2.9633982395       12.1290462329
  H        14.9526719547        4.8205061038       13.3217798732
  H        17.3673406801        7.6859371946       11.2111145799
  H        18.5160514622        5.8183989730       10.0113539465
  H        16.7535531097        5.7396135124       14.7714711011
  H        44.8280348180       32.1403334700       11.9771573053
  H        45.9373719127       30.3415095668       13.3066261500
  H        43.6827173828       27.3781990905       11.1524378092
  H        42.5999431923       29.1901209949        9.8098074675
  H        44.2303752479       29.4366393126       14.7689920819
  H        14.8513356326        8.5462399445       11.3632985074
  H        44.8998322982       32.2340275392        19.921669728338
  H        46.0248177944       30.4130174259        18.642197508638
  H        43.7635456041       27.4840506953        20.835229537138
  H        42.6457080596       29.3178142915        22.114285485538
  H        44.2684797982       29.4703521624        17.208101545338
  H        35.0713957737       26.5976290530        20.653084097038
  H        36.6053445014       35.1340382645        8.1806770716
  H        16.1432369723        3.0130902529        19.894505573638
  H        14.9736688023        4.8564785323        18.678743216438
  H        17.3972564666        7.7472622132        20.743969319138
  H        18.5443133008        5.8933580594        21.971558860538
  H        16.7647025169        5.7555651055        17.209058774738
  H        36.2790950278       34.4822825723        22.262883390738
  H        36.3814400365       34.2088468798        9.4994709624
  H        40.5794787035       33.2024301343        21.143979452238
  H        17.4710239691        1.9473054138        23.963886067438
  H        28.9750380876       19.2325628261       12.4453338357
  H        28.6405120532       19.1176207846        19.651624043338
  H        32.3156992951       16.2033246960        19.606253223138
  H        31.3573866540       15.6566796137       12.5756879288
  H        28.4493392941       17.9185113088       14.8281247448
  H        29.9563041834       15.9947671133       15.1644337340
  H        31.7623850771       19.3552868583        17.481187028138
  H        33.4429649042       18.7681230025       16.5661704860
  H        18.8544170032        0.8693179282       12.3353166178
  H        40.5281006487       35.2289250964        19.941821042938
  H        42.3240600068       34.4189439160        19.580145919138
  H        22.0878434785        0.6921882813       12.3514084859
  H        11.5964614990       18.7129913079       12.3826997844
  H        52.2650044021       18.4312770205        19.667174319238
  H        49.2553014560       16.4764961832        19.574022776538
  H        10.1503905390       15.7982435366       12.2925871462
  H        50.8502104637       17.6925539452        19.943925479938
  H        10.0460064853       17.3946656565       12.0519683650
  H        20.2159551326        0.0025455733       12.0418140627
  H        39.1837742501       36.1243648148        19.676012552438
 Ni        30.4830030857       17.6425102693        19.742728778338
 Ni        31.6252664612       17.4707444692       15.906429354438
 Ni        30.0563840417       19.1114491845        15.990192752938
 Ni        30.2333399877       17.5404643239       13.3225012268