     569
 i =      158, E =     -4729.5151604860
  C        11.8586872775       14.0535158302        21.731375859738
  C        12.4562760850       12.8906456085        21.013000044338
  C        11.7046532753       12.1717923715        20.071230327938
  C        12.2810376929       11.1095861670        19.378882472638
  C        13.6215866607       10.7397139287        19.606671628538
  C        14.3547106252       11.4432312971        20.580225236438
  C        13.7817817042       12.5081734817        21.271758487238
  C        14.2610852613        9.6490044672        18.833296198438
  C        14.2561953908        9.6567764983        17.411588655738
  C        13.7429070723       10.7588040541        16.657623440638
  C        49.1265856283       21.2333201503        21.869604860738
  C        48.5497241785       22.4011672288        21.142461895138
  C        49.2997947867       23.0685810982        20.161559153038
  C        48.7328383145       24.1076669229        19.428311166638
  C        47.4022411875       24.5091759653        19.656818530738
  C        46.6712192618       23.8601746100        20.670197311938
  C        47.2336912784       22.8153034302        21.399591679638
  C        46.7720508090       25.5868979230        18.859530712038
  C        46.7611181190       25.5573209026        17.437767813238
  C        47.2610058825       24.4421988248        16.694287438838
  C        14.8600808792        8.5703975594        16.698338796838
  C        14.8919651507        8.5971082159        19.509956408538
  C        49.1131114953       21.2033687982       10.1453937070
  C        48.5277597618       22.3647765082       10.8725136716
  C        49.2669856099       23.0254589795       11.8654530342
  C        48.6906902699       24.0600398522       12.5969018252
  C        47.3603068856       24.4568802212       12.3586152829
  C        46.6398971145       23.8120046588       11.3350720301
  C        47.2134114419       22.7760576781       10.6033074104
  C        46.7218768112       25.5318705908       13.1496374867
  C        46.7335075678       25.5282000423       14.5713449939
  C        47.2488133827       24.4289292286       15.3277330281
  C        40.6196294553       17.0878846550       15.3008692250
  C        40.6259151471       17.1027094452       12.4912802590
  C        11.8828972849       14.0864146777       10.2854765535
  C        12.4719564401       12.9103167251       10.9894298702
  C        11.7144409487       12.1774589381       11.9158270976
  C        12.2808606118       11.0949179475       12.5842516620
  C        13.6195129991       10.7207269115       12.3521488586
  C        14.3573802988       11.4357994643       11.3908825290
  C        13.7921261850       12.5170586246       10.7181840814
  C        14.2531126182        9.6240451221       13.1226663684
  C        14.2519795676        9.6441448182       14.5445180738
  C        13.7421674365       10.7531349818       15.2915737548
  C        22.5115325457        3.2440571925        21.741799193438
  C        23.2256905776        4.3477943377        21.039961645438
  C        24.2188417413        4.0650549751        20.090459678638
  C        24.8466027965        5.1027370658        19.406363386538
  C        24.4969638267        6.4454757344        19.651514740338
  C        23.5317194767        6.7195856411        20.637702495738
  C        22.8992659836        5.6837826873        21.320267219538
  C        25.1040248892        7.5513963007        18.876059695938
  C        25.0748518600        7.5476714645        17.454476445938
  C        24.3737685520        6.5492047128        16.706407540138
  C        38.2982077693       31.9287984179        21.841368877438
  C        37.5557396046       30.8412244501        21.138811133638
  C        36.5888273961       31.1509428034        20.169768592238
  C        35.9559591106       30.1351938687        19.458326495938
  C        36.2743825850       28.7830104617        19.692413538138
  C        37.2114776007       28.4805814556        20.698575797038
  C        37.8482301024       29.4954698986        21.409610898938
  C        35.6590541791       27.6973326556        18.893794127938
  C        35.6925168387       27.7151335383        17.471786623738
  C        36.4063195204       28.7138764319        16.736835558738
  C        25.6956066130        8.6204395542        16.736671148538
  C        25.7042916731        8.6231908161        19.548583631938
  C        38.3282785222       31.9609930939       10.1593989160
  C        37.6041399135       30.8908995122       10.9073508864
  C        36.6730872543       31.2074360768       11.9089985717
  C        36.0538349565       30.1956445160       12.6410126140
  C        36.3495270471       28.8394742064       12.3960569339
  C        37.2613411575       28.5327857300       11.3669533901
  C        37.8829699111       29.5414544474       10.6362272522
  C        35.7251962100       27.7464546662       13.1792257913
  C        35.7257632413       27.7407333931       14.6023104993
  C        36.4219221786       28.7266237295       15.3701619655
  C        46.1355367613       26.6208728448       15.2814629990
  C        46.0880077006       26.5802666417       12.4735671694
  C        22.4622072513        3.2567022406       10.2570672982
  C        23.1584649080        4.3660944142       10.9771230074
  C        24.1644599773        4.0814932344       11.9143506767
  C        24.7940029636        5.1125274393       12.6077902688
  C        24.4377791454        6.4582201125       12.3874355569
  C        23.4552491956        6.7360930002       11.4182047212
  C        22.8213475945        5.7053919620       10.7248306788
  C        25.0673012903        7.5569288806       13.1626961250
  C        25.0565285556        7.5501368273       14.5855513324
  C        24.3634059279        6.5512944446       15.3397129595
  C        26.5694599344       17.8182066446        21.743019259538
  C        25.2607503205       17.8712593865        21.026982920738
  C        25.0002141255       18.8787342042        20.084979724238
  C        23.7883405935       18.9029665884        19.399464070038
  C        22.8045552532       17.9210244500        19.631874358538
  C        23.0596003938       16.9374472090        20.605561642138
  C        24.2723244281       16.9099184184        21.291962425138
  C        21.5405158225       17.9089810107        18.856259946338
  C        21.5581613921       17.9088160791        17.434384236038
  C        22.7733143472       17.7945149711        16.688086887138
  C        34.4453431906       17.1871196506        21.901960512138
  C        35.7392479113       17.1373901066        21.161437981338
  C        35.9463370870       16.1642488338        20.171070710038
  C        37.1253668649       16.1516553569        19.431609113938
  C        38.1309955967       17.1103256598        19.662812030438
  C        37.9276913083       18.0634524157        20.678956242238
  C        36.7451039664       18.0821584405        21.415253082538
  C        39.3826502727       17.1178216105        18.871614353738
  C        39.3722150612       17.1206727289        17.449592422138
  C        38.1618589057       17.2372476437        16.696269213238
  C        20.3204124854       17.9395183870        16.712659838038
  C        20.3095473219       17.8983362674        19.525046425238
  C        34.4390640497       17.2400472312       10.1757288915
  C        35.7398297555       17.1430267329       10.8983246870
  C        35.9364914943       16.1712706925       11.8911000186
  C        37.1258363555       16.1387813736       12.6148323195
  C        38.1468406677       17.0775732907       12.3676547354
  C        37.9555481668       18.0219829529       11.3412699510
  C        36.7660638896       18.0590607502       10.6195165257
  C        39.3964835476       17.0910882229       13.1605886189
  C        39.3790639907       17.1078091186       14.5823485229
  C        38.1651207353       17.2303289316       15.3296103262
  C        35.0834142704       26.6667038191       15.3045901070
  C        35.1280682569       26.6799365650       12.4939903893
  C        26.6315205148       17.8628445058       10.3310929177
  C        25.3209433785       17.9210280779       11.0440301807
  C        25.0576693884       18.9211885026       11.9923742800
  C        23.8316660702       18.9544290796       12.6538900190
  C        22.8384102866       17.9891426827       12.3901240817
  C        23.0990832386       17.0130555379       11.4109729254
  C        24.3242196198       16.9769561497       10.7488951067
  C        21.5630517280       17.9724346348       13.1467493956
  C        21.5690436189       17.9411664072       14.5680032498
  C        22.7780642617       17.8099271372       15.3223382842
  C        14.0521665314       17.8369109795       10.2798572964
  C        15.3683185870       17.9139750864       10.9833895902
  C        15.6332605876       18.9341157233       11.9104517934
  C        16.8512719442       18.9712313322       12.5869007802
  C        17.8385681144       17.9912051944       12.3593094649
  C        17.5804440942       16.9981710739       11.3959093491
  C        16.3620254369       16.9570406373       10.7201036811
  C        19.1054899459       17.9773941983       13.1338587021
  C        19.0870850571       17.9546915364       14.5560500338
  C        17.8705287303       17.8457616838       15.3012306282
  C        46.8018286111       17.2150223652       10.1549394578
  C        45.5063647371       17.1427805945       10.8909997021
  C        45.2985932517       16.1570170291       11.8682782479
  C        44.1132650181       16.1291154080       12.5982805618
  C        43.1049978689       17.0868382901       12.3738126195
  C        43.3086136172       18.0502309066       11.3672602356
  C        44.4948696421       18.0820434068       10.6379556664
  C        41.8526054864       17.0932133948       13.1649647758
  C        41.8636661814       17.0981294635       14.5870789747
  C        43.0756040806       17.1969394021       15.3404872569
  C        20.3252369878       17.9550418455       15.2782445337
  C        20.3377419474       17.9699574576       12.4656194267
  C        46.7858569303       17.2332078862        21.874605606338
  C        45.4866934853       17.1308794219        21.150526962638
  C        45.2720734602       16.1337836382        20.186605528238
  C        44.0866686058       16.1066009413        19.455822907338
  C        43.0855001600       17.0738501647        19.670837209638
  C        43.2919387118       18.0427036781        20.670909899238
  C        44.4781717915       18.0759320634        21.397307336238
  C        41.8373838587       17.0912165744        18.875921036638
  C        41.8562330943       17.0956964964        17.454474394238
  C        43.0721787625       17.1931512275        16.707280670438
  C        46.1532325672       26.6372723195        16.716017365638
  C        46.1621564346       26.6560427720        19.525662388038
  C        14.0395941172       17.8239559543        21.690470996438
  C        15.3489462025       17.8824132357        20.977841293938
  C        15.6170714320       18.8984607574        20.048437781238
  C        16.8369111121       18.9287833880        19.376750852238
  C        17.8155060086       17.9418025179        19.609177934438
  C        17.5516628793       16.9493899402        20.570859735338
  C        16.3339653248       16.9187827799        21.246236284238
  C        19.0849639255       17.9252861101        18.844799592238
  C        19.0768901962       17.9270845763        17.423250723638
  C        17.8657374968       17.8329501529        16.667197199138
  C        28.8036127025       14.0893153891       10.3639799162
  C        28.1952074172       12.9212634750       11.0625779772
  C        28.9112953539       12.2035000311       12.0320803843
  C        28.3130501363       11.1312894758       12.6898622711
  C        26.9851975802       10.7530069601       12.4034177805
  C        26.2916133301       11.4533216386       11.3999005816
  C        26.8867133755       12.5255917028       10.7407927933
  C        26.3159719191        9.6728047973       13.1641129285
  C        26.2971143592        9.6995352229       14.5852743013
  C        26.7907846092       10.8151727142       15.3333866921
  C        32.1452671647       21.2360572121       10.1757646547
  C        32.7169542140       22.4124636441       10.8962531772
  C        31.9586958645       23.1168292387       11.8446833909
  C        32.5271834208       24.1645878354       12.5645436049
  C        33.8687320466       24.5393806579       12.3548296524
  C        34.6081381097       23.8571477335       11.3703768374
  C        34.0431466772       22.8046022178       10.6542051598
  C        34.4996839226       25.6168092192       13.1523378408
  C        34.4862760804       25.5878420148       14.5737609732
  C        33.9720639983       24.4733890953       15.3086058914
  C        25.6901704364        8.6184932103       15.3019633293
  C        25.6838300400        8.6198354062       12.4888627429
  C        32.0917062262       21.1663209487        21.826174618938
  C        32.6507651453       22.3436173041        21.097663032238
  C        31.9158892067       22.9881706976        20.090722838238
  C        32.4782799452       24.0443686715        19.376127682538
  C        33.7918727757       24.4806948765        19.641765270438
  C        34.5066652200       23.8493431105        20.678218625338
  C        33.9472522159       22.7944831620        21.393719964138
  C        34.4289013861       25.5696462275        18.863822728538
  C        34.4512036346       25.5630891898        17.441067084438
  C        33.9567044056       24.4607997196        16.674948400038
  C        40.6157074807       17.0906476309        16.735788636638
  C        40.6089530749       17.1198187596        19.545880356638
  C        28.7448716047       14.0627341746        21.800761542938
  C        28.1367419448       12.9135055129        21.068957764738
  C        28.8647518369       12.2329380048        20.081122894138
  C        28.2835127088       11.1765489929        19.384309998038
  C        26.9580843942       10.7758462212        19.648316041638
  C        26.2483478626       11.4437302637        20.663892841238
  C        26.8280680826       12.4999183568        21.363658412238
  C        26.3136617541        9.6888504675        18.873524153638
  C        26.2975087005        9.7076887483        17.451615494038
  C        26.7893591302       10.8202938162        16.699211268038
  C        18.1353709170        3.1807767812       10.3171784802
  C        17.4059522804        4.2779314552       11.0157771446
  C        16.3901323308        3.9995027441       11.9431703272
  C        15.7423085773        5.0394343215       12.6066437570
  C        16.0942209254        6.3831725294       12.3670648190
  C        17.0837217586        6.6527668714       11.4034477417
  C        17.7329263770        5.6154755201       10.7384252148
  C        15.4697669983        7.4908250419       13.1300802765
  C        15.4851358502        7.4902333886       14.5517900838
  C        16.1868547819        6.4967396780       15.3049655693
  C        42.9457946752       31.8595883008       10.0728894657
  C        43.6462825141       30.7719050438       10.8167074688
  C        44.5916459262       31.0933007451       11.8029205579
  C        45.1974214857       30.0877917755       12.5505751900
  C        44.8712373921       28.7346865953       12.3355890638
  C        43.9456819382       28.4202836333       11.3221360241
  C        43.3367975724       29.4253806024       10.5740877140
  C        45.4887956100       27.6554060910       13.1388204717
  C        45.4929271870       27.6810470676       14.5605193349
  C        44.8059248778       28.6891510555       15.3071463353
  C        14.8561407329        8.5627380116       15.2641104870
  C        14.8743566345        8.5624800807       12.4514384198
  C        42.9463538024       31.9616677510        21.798706048438
  C        43.6916278492       30.8855141241        21.085318246638
  C        44.6562421628       31.1914263748        20.113033813938
  C        45.2777756294       30.1718447387        19.395309537838
  C        44.9539907564       28.8215179984        19.632906096638
  C        44.0205483729       28.5238458310        20.643730344138
  C        43.3922898569       29.5406042772        21.355925432438
  C        45.5629660846       27.7241099318        18.847617245738
  C        45.5333392003       27.7174717596        17.426315031838
  C        44.8271611210       28.7077801676        16.673332433538
  C        35.0657171405       26.6537422175        16.739978720438
  C        35.0436916664       26.6250881554        19.550318277638
  C        18.1486091184        3.2469430361        21.696376274538
  C        17.4300976220        4.3437676750        20.987016613238
  C        16.4146585620        4.0525601247        20.063674085038
  C        15.7663765870        5.0832239644        19.388305339138
  C        16.1212982243        6.4284334096        19.610815228138
  C        17.1129916516        6.7117508807        20.567763315638
  C        17.7606488245        5.6828085552        21.247511374638
  C        15.4907339215        7.5241298290        18.838383867738
  C        15.4964504391        7.5073923420        17.417246816538
  C        16.1932057222        6.5056705914        16.670569673838
  H        10.6725307725       12.4659318755        19.894174722638
  H        11.6947316557       10.5511177081        18.652346841338
  H        15.3917081130       11.1685596722        20.762044760638
  H        14.3511629106       13.0712305925        22.007388701438
  H        13.3759351941       11.6309803131        17.190875065738
  H        50.3225547747       22.7486443504        19.976939708038
  H        49.3193416545       24.6230154211        18.670804237238
  H        45.6416624484       24.1608095769        20.853231696338
  H        46.6626245539       22.2899435198        22.161566536338
  H        47.6294041948       23.5757640540        17.235978862938
  H        14.8724643379        8.5884447526        20.598266842838
  H        50.2870013329       22.7025369839       12.0603921602
  H        49.2690718182       24.5754577000       13.3604381977
  H        45.6105000753       24.1092609947       11.1459964617
  H        46.6525504856       22.2538845882        9.8317774187
  H        47.6075225517       23.5517778639       14.7968404313
  H        40.6280960118       17.0665077244       11.4035281915
  H        48.6870169493       14.0949493193        23.789772866838
  H        10.6811014221       12.4668599578       12.0934681161
  H        11.6890521923       10.5248125406       13.2971660036
  H        15.3926611197       11.1575363808       11.2046631443
  H        14.3644597017       13.0861010535        9.9893929628
  H        13.3752369210       11.6216896492       14.7529142634
  H        47.9301471123       14.2183083035        9.7108153103
  H        47.7799165863       14.3732907863        22.484964822938
  H        49.0822008445       18.5515066540       10.8670321509
  H        10.4158657189       14.1343318976        7.9987817186
  H        24.4766839753        3.0257846014        19.899230854538
  H        25.6172158487        4.8831569817        18.670595563138
  H        23.2545247811        7.7533691950        20.833302338038
  H        22.1320633817        5.8863345321        22.063588641438
  H        23.8132342994        5.7907895357        17.245155260738
  H        36.3578682686       32.1957163834        19.975796293538
  H        35.2068145057       30.3807638501        18.708764489238
  H        37.4660949337       27.4397388485        20.887653800838
  H        38.5968408934       29.2680620329        22.164965414138
  H        36.9738741547       29.4601353620        17.285173187438
  H        25.7433515055        8.6015747862        20.636172448938
  H        36.4539915694       32.2535143945       12.1108569331
  H        35.3260094104       30.4495232624       13.4085493492
  H        37.5044272878       27.4906127820       11.1704095354
  H        38.6075467233       29.3069684809        9.8600600890
  H        37.0025591428       29.4819273918       14.8483293030
  H        46.1094906039       26.5876729033       11.3855328154
  H        44.6684540750       35.1162460812        23.803712916938
  H        24.4437367712        3.0436171165       12.0812400237
  H        25.5771770179        4.8843585590       13.3276403309
  H        23.1683997786        7.7702354046       11.2385382372
  H        22.0470404457        5.9177849244        9.9912450941
  H        23.7946517926        5.7948680409       14.8067657408
  H        44.9542299964       34.3908274900        9.6955189940
  H        44.9022992890       34.2069865847        22.480402608638
  H        40.6662248894       33.2090928820       10.8531618847
  H        23.1504354174        1.9580751181        8.0049626707
  H        25.7579999360       19.6378716561        19.905578649738
  H        23.5889372091       19.6892855680        18.674624176438
  H        22.3100612697       16.1710660509        20.792162660738
  H        24.4834362868       16.1369004678        22.027142107438
  H        23.7070389828       17.6625093467        17.227065842038
  H        35.1660486993       15.4293611893        19.988537190438
  H        37.2831934286       15.3901038406        18.671041718038
  H        38.6957137986       18.8122196176        20.861681571338
  H        36.5718397303       18.8337186871        22.182011365438
  H        37.2246300056       17.3648904172        17.230456536838
  H        20.3043074959       17.9222874476        20.613335432138
  H        35.1387196208       15.4605611164       12.0945758985
  H        37.2759063113       15.3815038172       13.3811861649
  H        38.7368853169       18.7529312904       11.1437054515
  H        36.5995711152       18.8062831355        9.8473715783
  H        37.2299307989       17.3523968173       14.7908095771
  H        35.1080109698       26.7042887968       11.4060351541
  H        28.5103316041       21.0886363033        23.770736887338
  H        25.8226697455       19.6689183658       12.1906255209
  H        23.6281728697       19.7351806962       13.3837004417
  H        22.3428561409       16.2594260749       11.2009322173
  H        24.5379448935       16.2122025554       10.0060785614
  H        23.7157491469       17.6896270897       14.7881891938
  H        28.9555078175       21.7382228354        9.6939018352
  H        29.1974061431       21.7015196553        22.445569289938
  H        32.1712693575       18.5364647485       10.8779912163
  H        27.4014492124       19.0631737877        7.9975667084
  H        14.8728849712       19.6913810996       12.0881178221
  H        17.0507538741       19.7654237650       13.3032240659
  H        18.3322977056       16.2338544345       11.2100924297
  H        16.1509633879       16.1759763330        9.9935017975
  H        16.9343530478       17.7408835232       14.7608270115
  H        46.0837216975       15.4269517833       12.0503152233
  H        43.9543515725       15.3581187765       13.3490523945
  H        42.5381687648       18.7973725311       11.1882557821
  H        44.6680295783       18.8411402752        9.8786784560
  H        44.0151746058       17.3078102229       14.8068188183
  H        20.3435442100       18.0118899376       11.3777938061
  H        46.0493408470       15.3931172888        20.012818458938
  H        43.9230232940       15.3310282116        18.710775358338
  H        42.5247805007       18.7946821793        20.843459773438
  H        44.6571625888       18.8422740016        22.147500294438
  H        44.0092420212       17.3004380000        17.245995829138
  H        46.1989664556       26.6825510924        20.613109723138
  H        52.7410656182       21.0625395187        8.1947178719
  H        14.8608203876       19.6601143088        19.871942820238
  H        17.0463272528       19.7226054486        18.662969288738
  H        18.2985894616       16.1800899421        20.755677560938
  H        16.1155261450       16.1424261329        21.975514013238
  H        16.9257858975       17.7180024177        17.198900097438
  H        52.3222264176       21.6731874513        22.284243780838
  H        52.0127126523       21.7017597407        9.4955145349
  H        49.0676798479       18.6079119409        21.193875732638
  H        13.2472337038       19.0164856056        23.963467759338
  H        29.9327953932       12.5016831405       12.2580364463
  H        28.8707719722       10.5732567136       13.4388265239
  H        25.2657273995       11.1723020325       11.1707879379
  H        26.3478596017       13.0863477806        9.9810944379
  H        27.1458450715       11.6886513883       14.7949839225
  H        30.9227554542       22.8302999362       12.0100143672
  H        31.9341693482       24.7076546116       13.2972442503
  H        35.6460527731       24.1366715271       11.2013955229
  H        34.6200828137       22.2534376963        9.9153196490
  H        33.6160629153       23.6056397844       14.7608278431
  H        25.7180809113        8.5999550784       11.4009761976
  H        30.9097127597       22.6388194484        19.869687134938
  H        31.8992195771       24.5450100907        18.603269860838
  H        35.5235820477       24.1723777352        20.891191117838
  H        34.5071137034       22.2871013863        22.175665370938
  H        33.5901108643       23.5824671858        17.198414593038
  H        40.6063745461       17.0893990671        20.633791877938
  H        32.5052219157       14.1487629091        8.2381202194
  H        29.8853365932       12.5478582421        19.875800214738
  H        28.8556721923       10.6447923621        18.627189471338
  H        25.2229484100       11.1471607557        20.874859774538
  H        26.2759358034       13.0321080884        22.134576149038
  H        27.1419146347       11.6978108443        17.233428095738
  H        33.3118217044       14.2185002753        22.456668172338
  H        33.4090003201       14.3963434598        9.5947140282
  H        32.0873222930       18.4177501286        21.041926953238
  H        30.1953894501       14.1547588095        8.0860444186
  H        16.1180595817        2.9629862007       12.1294669192
  H        14.9527984356        4.8200187225       13.3222264305
  H        17.3662348317        7.6856481743       11.2104857031
  H        18.5150735385        5.8182124074       10.0107193120
  H        16.7534857483        5.7394534934       14.7714668525
  H        44.8277750273       32.1404027040       11.9772031320
  H        45.9371690897       30.3416286484       13.3066075797
  H        43.6832891274       27.3781705807       11.1518177362
  H        42.6004695457       29.1899781091        9.8091637726
  H        44.2307144261       29.4370268102       14.7688419648
  H        14.8505775779        8.5456236391       11.3632202437
  H        44.8998402086       32.2341024672        19.921618204438
  H        46.0246812500       30.4131050497        18.642081845538
  H        43.7636078063       27.4841106686        20.835300553738
  H        42.6458823548       29.3177839963        22.114453828038
  H        44.2687741265       29.4707683401        17.207897732638
  H        34.9996285294       26.6361247670        20.637781438138
  H        36.6053370831       35.1341064381        8.1805608925
  H        16.1433721049        3.0130088358        19.894128771238
  H        14.9738748664        4.8564412128        18.678399552738
  H        17.3968272575        7.7471717301        20.744394236738
  H        18.5438318298        5.8932408818        21.971948065938
  H        16.7648074497        5.7555660538        17.209020463738
  H        36.2789559143       34.4822989788        22.263002113038
  H        36.3813143030       34.2089188352        9.4993665915
  H        40.5795334617       33.2019546442        21.143900495338
  H        17.4711243774        1.9472048822        23.963977045738
  H        29.1159516802       19.1237020950       12.9164541608
  H        28.7649950888       18.6188716866        19.684655895038
  H        31.8926794299       15.8126887911        19.441789342238
  H        31.3332295307       15.4765968262       12.4328462683
  H        27.9311246158       17.8154463467       14.3403976832
  H        29.3730655047       15.1144868045       14.4684549423
  H        32.4951809169       17.3580448377        17.167012728938
  H        18.8539173768        0.8691195053       12.3351444108
  H        40.5282749068       35.2288303384        19.941861824038
  H        42.3242759043       34.4192015341        19.580078203538
  H        22.0877573404        0.6922429081       12.3515446992
  H        11.5969620862       18.7127487599       12.3828383487
  H        52.2650213327       18.4314240661        19.667766012438
  H        49.2549730119       16.4766995456        19.574354822338
  H        10.1504530860       15.7982187085       12.2927138792
  H        50.8500176843       17.6925340661        19.943843145338
  H        10.0460893541       17.3944879256       12.0520211558
  H        20.2153395622        0.0023194832       12.0418985582
  H        39.1838985041       36.1243002744        19.676124901138
 Ni        30.6526285173       17.6448367314        18.573068930538
 Ni        30.9889835275       16.2731741540       15.743691062838
 Ni        29.6727686217       18.2118060855        16.072349386238
 Ni        30.1015677192       17.1786897250       13.2433910243
  O        10.6499280322       14.3651064951        21.475618644538