     566
 i =      151, E =     -4712.2691621605
  C        11.8588184114       14.0535710976        21.731329686638
  C        12.4562493668       12.8905430536        21.013216507738
  C        11.7044944945       12.1716711677        20.071532844438
  C        12.2808052043       11.1094420444        19.379173739738
  C        13.6213696006       10.7395483734        19.606886326138
  C        14.3545458233       11.4430201716        20.580432414438
  C        13.7817499945       12.5080378184        21.271965557938
  C        14.2608801212        9.6488998600        18.833431898238
  C        14.2560909649        9.6567867966        17.411722823738
  C        13.7428185977       10.7588467793        16.657795984638
  C        49.1268591427       21.2329945612        21.869403667238
  C        48.5501844432       22.4010016059        21.142365846238
  C        49.3001792550       23.0682709618        20.161301058338
  C        48.7332684010       24.1074688435        19.428159294638
  C        47.4027784430       24.5092421373        19.656882689038
  C        46.6718796206       23.8604220562        20.670475051938
  C        47.2342982445       22.8154637154        21.399775936938
  C        46.7725221760       25.5869652705        18.859630885538
  C        46.7614334040       25.5573387694        17.437862590938
  C        47.2612800301       24.4422220514        16.694343264738
  C        14.8601249611        8.5705100480        16.698436512038
  C        14.8917927577        8.5970040415        19.510055486738
  C        49.1131355033       21.2034298529       10.1453426105
  C        48.5277209480       22.3647264538       10.8725415582
  C        49.2669594020       23.0255179178       11.8654082277
  C        48.6905974447       24.0600649009       12.5968562097
  C        47.3601483528       24.4567759027       12.3586768540
  C        46.6397378806       23.8117790685       11.3352038949
  C        47.2133026466       22.7758707172       10.6034248905
  C        46.7216916156       25.5317526555       13.1497094920
  C        46.7334860373       25.5281204803       14.5714179568
  C        47.2489329830       24.4289040228       15.3277891992
  C        40.6185874121       17.0974870348       15.3114377086
  C        40.6294635149       17.1093249712       12.5015963572
  C        11.8830840405       14.0866366369       10.2854103527
  C        12.4723621101       12.9107652943       10.9895546988
  C        11.7148987450       12.1777916480       11.9159075631
  C        12.2814117998       11.0952933169       12.5843168768
  C        13.6201202781       10.7212397251       12.3523038425
  C        14.3579525205       11.4364683221       11.3911178853
  C        13.7926002831       12.5176621697       10.7183949711
  C        14.2537101683        9.6245217944       13.1227846957
  C        14.2523135303        9.6444668281       14.5446390991
  C        13.7423125407       10.7533381176       15.2917458876
  C        22.5125079703        3.2449923753        21.744150315238
  C        23.2274343479        4.3519044709        21.047989726338
  C        24.2284040736        4.0756090353        20.104916003338
  C        24.8542452303        5.1177409535        19.425653307038
  C        24.4945908412        6.4582600816        19.669025469538
  C        23.5224810392        6.7261132326        20.649944432838
  C        22.8922952904        5.6859574419        21.327857595838
  C        25.0954280905        7.5673047739        18.893252661638
  C        25.0659145282        7.5592255005        17.471814736338
  C        24.3674539335        6.5560316961        16.727521818338
  C        38.2946061562       31.9251666269        21.842891979838
  C        37.5453381407       30.8344633566        21.147738926938
  C        36.5750227348       31.1394729856        20.180090098038
  C        35.9377835764       30.1209802186        19.475066382338
  C        36.2533627942       28.7681660879        19.712262836038
  C        37.1917029138       28.4706408167        20.719153411938
  C        37.8330772034       29.4883206730        21.423706228038
  C        35.6412927773       27.6798344820        18.910321613738
  C        35.6909418407       27.6951500833        17.487812704538
  C        36.4086999366       28.6960466329        16.759245423338
  C        25.6820110679        8.6320891036        16.750550518238
  C        25.6878187574        8.6454128576        19.562849240538
  C        38.3317443319       31.9594452679       10.1631876444
  C        37.6195535539       30.8856717558       10.9181192289
  C        36.6867770463       31.1947125320       11.9204919171
  C        36.0789019717       30.1780920038       12.6560331378
  C        36.3878354233       28.8240318213       12.4146308254
  C        37.3036570284       28.5249375065       11.3866688525
  C        37.9131947286       29.5380840792       10.6520989015
  C        35.7695877865       27.7246647724       13.1946784520
  C        35.7559240807       27.7185397395       14.6178344695
  C        36.4378207949       28.7086303739       15.3927628339
  C        46.1355307993       26.6207761787       15.2815749497
  C        46.0876783206       26.5800924852       12.4736692144
  C        22.4602271968        3.2564805748       10.2595728337
  C        23.1514930974        4.3653173943       10.9854014068
  C        24.1501880195        4.0800675155       11.9302829130
  C        24.7753745222        5.1104644223       12.6287517825
  C        24.4226380120        6.4565915559       12.4051798523
  C        23.4468193644        6.7349269109       11.4291042624
  C        22.8167959589        5.7048875599       10.7313685018
  C        25.0511713381        7.5564331688       13.1796202502
  C        25.0432151990        7.5531366280       14.6027098504
  C        24.3541340681        6.5545779955       15.3608866454
  C        26.6755889224       17.8742096147        21.718275191038
  C        25.3758757370       17.9630360436        20.988189350538
  C        25.1361756360       18.9439743467        20.013186345538
  C        23.9082935057       18.9934430578        19.352377433738
  C        22.8863973014       18.0635478327        19.638344641538
  C        23.1261212037       17.1066516640        20.642913386238
  C        24.3503209606       17.0545019818        21.304275319338
  C        21.6042051361       18.0521123140        18.887574889538
  C        21.5945242474       18.0037856897        17.465432366138
  C        22.7947481739       17.8601638667        16.699705360138
  C        34.4341825868       17.1952192059        21.907304144238
  C        35.7271434756       17.1484386556        21.165714068438
  C        35.9273640244       16.1865492774        20.162443124138
  C        37.1076661480       16.1735094634        19.425122111838
  C        38.1214677638       17.1206422885        19.669667991838
  C        37.9241523233       18.0620868272        20.698189845138
  C        36.7407315981       18.0812499619        21.433167563038
  C        39.3744835143       17.1275305271        18.880510625038
  C        39.3667532683       17.1328997496        17.458197217838
  C        38.1586203187       17.2549179449        16.702152079138
  C        20.3430977430       18.0073163121        16.764948789238
  C        20.3818500596       18.0561242469        19.577602157138
  C        34.4400147009       17.2346295901       10.1873915997
  C        35.7394781442       17.1409257794       10.9112196872
  C        35.9395521888       16.1701495562       11.9041930558
  C        37.1299611055       16.1408956488       12.6264725886
  C        38.1489976506       17.0813114335       12.3768146083
  C        37.9541666462       18.0250313474       11.3506226459
  C        36.7633506847       18.0595964811       10.6312600103
  C        39.3989784274       17.0982631889       13.1692485871
  C        39.3794364209       17.1185735743       14.5908726987
  C        38.1644992011       17.2465316215       15.3355086768
  C        35.1127462519       26.6405136373       15.3134792763
  C        35.1876644237       26.6533196335       12.5033502819
  C        26.5647481342       17.8270481457       10.3269410365
  C        25.2489595675       17.8809067821       11.0279947892
  C        24.9793660258       18.8990547837       11.9555096726
  C        23.7613254923       18.9287820940       12.6287902891
  C        22.7826233408       17.9408639981       12.3989457485
  C        23.0457003603       16.9485189377       11.4371063967
  C        24.2644532894       16.9163591462       10.7617604604
  C        21.5212695572       17.9273552237       13.1767847005
  C        21.5522370852       17.9388048896       14.5981719703
  C        22.7743663253       17.8301937277       15.3342516833
  C        14.0450217749       17.8272708845       10.2918189947
  C        15.3455486856       17.8824323468       11.0247574129
  C        15.6003762780       18.8918016443       11.9664221553
  C        16.8070246306       18.9164843384       12.6631380283
  C        17.7933889153       17.9342769829       12.4410882413
  C        17.5416039794       16.9460292711       11.4705107449
  C        16.3346019381       16.9173781709       10.7745558698
  C        19.0651002326       17.9289542039       13.2062220360
  C        19.0713422424       17.9486076833       14.6288300849
  C        17.8690754061       17.8586020344       15.3984938567
  C        46.8022033881       17.2165445329       10.1574764314
  C        45.5087405205       17.1476063439       10.8986112923
  C        45.3024469684       16.1643730668       11.8789417600
  C        44.1183785414       16.1380238407       12.6114904994
  C        43.1091236731       17.0948352088       12.3869490498
  C        43.3121233606       18.0568829513       11.3788175010
  C        44.4970282030       18.0871214474       10.6469652582
  C        41.8555670930       17.1010223285       13.1771588325
  C        41.8639365691       17.1059404663       14.5995635638
  C        43.0743930695       17.2023218787       15.3557045471
  C        20.3217703502       17.9744329304       15.3301165358
  C        20.2857361401       17.9027320777       12.5172783508
  C        46.7848915120       17.2324230120        21.876439657338
  C        45.4828149959       17.1289566910        21.157306191638
  C        45.2626417966       16.1289123514        20.197813889038
  C        44.0749971728       16.1024922913        19.470489500538
  C        43.0772437534       17.0734888239        19.684480056138
  C        43.2884735885       18.0444686774        20.681366792138
  C        44.4768979028       18.0768260613        21.404302907338
  C        41.8293821499       17.0943385389        18.888945826438
  C        41.8507141651       17.1010600905        17.467481573538
  C        43.0682460345       17.1968143884        16.722569680438
  C        46.1533930652       26.6372249069        16.716133961338
  C        46.1626130092       26.6561084385        19.525779253338
  C        14.0521757822       17.8399224976        21.702226825638
  C        15.3804418021       17.9368705511        21.022163516638
  C        15.6464023844       18.9636981962        20.103048328938
  C        16.8780900934       19.0245101594        19.453445352038
  C        17.8758937558       18.0582151326        19.694746423238
  C        17.6172739115       17.0613495655        20.653854382538
  C        16.3872519243       17.0002226371        21.307718819738
  C        19.1434971387       18.0504458521        18.919788347238
  C        19.1119624123       18.0104166366        17.497637520638
  C        17.8889053763       17.8862864498        16.764370503238
  C        28.8048996482       14.0884568936       10.3936701847
  C        28.1898731981       12.9174004569       11.0805563638
  C        28.9026102999       12.1921616799       12.0470774805
  C        28.3004279130       11.1198576296       12.6998744833
  C        26.9710389401       10.7491996280       12.4117581759
  C        26.2812155802       11.4544364954       11.4091128738
  C        26.8809900129       12.5268608834       10.7541791179
  C        26.2986032759        9.6726888945       13.1741840035
  C        26.2806712077        9.7043092640       14.5954266447
  C        26.7734768948       10.8230458422       15.3395507298
  C        32.1789745445       21.2340201965       10.1469188052
  C        32.7760855818       22.4000405882       10.8658851473
  C        32.0253987929       23.0870532901       11.8329240488
  C        32.5958379077       24.1267118728       12.5614538513
  C        33.9343035554       24.5098404500       12.3466180149
  C        34.6679454421       23.8420695477       11.3474570051
  C        34.0995842497       22.7969260050       10.6202483365
  C        34.5603756349       25.5842295900       13.1536244031
  C        34.5320165190       25.5567749467       14.5758862658
  C        34.0142754383       24.4413764335       15.3070497884
  C        25.6756351226        8.6248886809       15.3156982350
  C        25.6661137925        8.6182306023       12.5022761654
  C        32.0178605504       21.1603513706        21.818316428238
  C        32.5829166311       22.3287337427        21.082765363838
  C        31.8655206350       22.9769695343        20.064618969838
  C        32.4443704993       24.0282798949        19.354137522538
  C        33.7555792394       24.4634560883        19.637516394838
  C        34.4507994971       23.8302445262        20.686703521138
  C        33.8780212071       22.7775379777        21.394425738138
  C        34.4085616195       25.5510037086        18.867410527538
  C        34.4533533815       25.5402913731        17.444533154438
  C        33.9758832484       24.4339162059        16.673269641838
  C        40.6116163494       17.1000017006        16.746465949838
  C        40.5999858239       17.1250187106        19.556867077738
  C        28.7183164911       14.0953507163        21.806179077238
  C        28.1037826749       12.9492354300        21.075672305738
  C        28.8333042479       12.2685139458        20.088229304438
  C        28.2549971749       11.2100080274        19.392778197138
  C        26.9306926656       10.8055255166        19.656885330938
  C        26.2188413653       11.4745530608        20.670734816338
  C        26.7953747918       12.5339317135        21.369303461838
  C        26.2922096533        9.7122782986        18.884772148538
  C        26.2795364731        9.7242674150        17.462350447438
  C        26.7705847749       10.8341973653        16.705489246638
  C        18.1354993110        3.1808776937       10.3172487688
  C        17.4062599858        4.2781237997       11.0159324063
  C        16.3902799968        3.9998334877       11.9431850643
  C        15.7425537035        5.0398571008       12.6066235337
  C        16.0947042961        6.3835532570       12.3671361134
  C        17.0844481340        6.6530031577       11.4037291877
  C        17.7335508599        5.6156218169       10.7387333058
  C        15.4702996978        7.4912598724       13.1301486674
  C        15.4854841757        7.4905596829       14.5518642369
  C        16.1871116864        6.4969931114       15.3050267856
  C        42.9457227505       31.8595524476       10.0727824985
  C        43.6460323830       30.7718214945       10.8167835919
  C        44.5914947887       31.0931394518       11.8029251344
  C        45.1971951315       30.0876098200       12.5506316219
  C        44.8708578248       28.7345237245       12.3357586309
  C        43.9451187769       28.4201747521       11.3224549237
  C        43.3363359663       29.4253100663       10.5743602991
  C        45.4884859808       27.6552291478       13.1389558747
  C        45.4927773167       27.6808898200       14.5606608361
  C        44.8058051461       28.6889819762       15.3073284523
  C        14.8563857097        8.5629949576       15.2642047137
  C        14.8750296026        8.5630100677       12.4515248269
  C        42.9464304267       31.9617130481        21.798746293438
  C        43.6917632307       30.8855378019        21.085387856738
  C        44.6563982643       31.1914314301        20.113118033538
  C        45.2779914381       30.1718578340        19.395419097138
  C        44.9542468263       28.8215280395        19.633049007138
  C        44.0207614376       28.5238519799        20.643828503638
  C        43.3924406673       29.5406218082        21.355968975638
  C        45.5632735617       27.7241169872        18.847768261438
  C        45.5334930611       27.7174031939        17.426461467338
  C        44.8271827759       28.7076466999        16.673513353238
  C        35.0760835145       26.6306293115        16.749324640238
  C        35.0163310471       26.6079542529        19.560261173738
  C        18.1486741334        3.2469933237        21.696406596138
  C        17.4301361237        4.3438262177        20.987043115138
  C        16.4147312610        4.0525794425        20.063678001838
  C        15.7664089491        5.0832167046        19.388308141338
  C        16.1212629398        6.4284287015        19.610867363638
  C        17.1129217653        6.7118042928        20.567829509438
  C        17.7605991301        5.6828754928        21.247580546438
  C        15.4906613006        7.5241080855        18.838450811738
  C        15.4964711632        7.5074739284        17.417314632938
  C        16.1933198958        6.5058234369        16.670630403538
  H        10.6723756135       12.4658350018        19.894506840438
  H        11.6944619539       10.5510000638        18.652646540238
  H        15.3915684226       11.1683791380        20.762156283438
  H        14.3513028640       13.0712466458        22.007344024638
  H        13.3756980880       11.6309340366        17.191092688638
  H        50.3228418770       22.7481505926        19.976450059438
  H        49.3197326137       24.6226917509        18.670537300038
  H        45.6424303293       24.1612751936        20.853749828338
  H        46.6632964461       22.2902879043        22.161923197438
  H        47.6297815522       23.5758133091        17.236003239338
  H        14.8722657753        8.5882968613        20.598364908638
  H        50.2870306061       22.7027311587       12.0602866998
  H        49.2689980695       24.5755852441       13.3603092442
  H        45.6103026037       24.1089383411       11.1461815891
  H        46.6524338063       22.2536298604        9.8319475507
  H        47.6076211071       23.5517456558       14.7968943737
  H        40.6332075004       17.0717017606       11.4138858710
  H        48.6870359636       14.0949746818        23.789839147138
  H        10.6814940653       12.4670061236       12.0934662106
  H        11.6896228264       10.5250833034       13.2971639798
  H        15.3932682541       11.1583157797       11.2049292039
  H        14.3648480618       13.0866655517        9.9895034299
  H        13.3754221326       11.6219425913       14.7531414474
  H        47.9301756424       14.2185187982        9.7108674723
  H        47.7799090178       14.3732231160        22.484988538838
  H        49.0830216084       18.5518036345       10.8671131963
  H        10.4162010673       14.1343887039        7.9986694882
  H        24.4933866168        3.0380281181        19.914123471138
  H        25.6302193053        4.9034322388        18.693966565638
  H        23.2375482384        7.7580366774        20.844227733938
  H        22.1193717882        5.8833677663        22.066572035538
  H        23.8104360229        5.7971804110        17.269237934338
  H        36.3448087831       32.1834130213        19.980367360538
  H        35.1883278596       30.3660577314        18.725574897738
  H        37.4457755048       27.4306245735        20.913695442038
  H        38.5828253370       29.2613263359        22.178158484238
  H        36.9669238221       29.4454251278        17.312781538838
  H        25.7251885078        8.6279570861        20.650590421238
  H        36.4561251443       32.2388523819       12.1197693732
  H        35.3482640069       30.4267841746       13.4226161603
  H        37.5581555939       27.4850013466       11.1927672096
  H        38.6396816753       29.3088306551        9.8761998743
  H        37.0192162797       29.4673597607       14.8765808612
  H        46.1090414904       26.5874739330       11.3856314664
  H        44.6684457323       35.1162736794        23.803663433438
  H        24.4278389769        3.0420305368       12.0988489942
  H        25.5537612070        4.8813525523       13.3534582403
  H        23.1624038722        7.7693178317       11.2470313949
  H        22.0478147259        5.9180338644        9.9924215904
  H        23.7861516511        5.7952819820       14.8311845178
  H        44.9543272930       34.3908975531        9.6955174732
  H        44.9021352428       34.2069865532        22.480336659438
  H        40.6665896659       33.2092655368       10.8532629013
  H        23.1502704993        1.9582002789        8.0059791573
  H        25.9205163781       19.6626250635        19.785783585838
  H        23.7283032880       19.7620280506        18.603756462438
  H        22.3525825739       16.3771144668        20.873835175338
  H        24.5416596770       16.3013638433        22.064540030738
  H        23.7384358338       17.7405381447        17.223790379338
  H        35.1420954279       15.4600255911        19.967581071738
  H        37.2596189600       15.4197313353        18.655714255538
  H        38.6980559893       18.8018813838        20.892268405738
  H        36.5742257608       18.8235311820        22.210390081438
  H        37.2205152311       17.3877351593        17.233390975238
  H        20.3950928518       18.1094277346        20.664932090238
  H        35.1442471462       15.4572565082       12.1095566905
  H        37.2821928205       15.3850348453       13.3937942319
  H        38.7333160373       18.7579808858       11.1519050480
  H        36.5940307805       18.8074434432        9.8604494339
  H        37.2307238401       17.3720670309       14.7949887423
  H        35.1762488917       26.6793009265       11.4153283361
  H        28.5059408351       21.0890592382        8.0059802408
  H        25.7365765282       19.6599093277       12.1308017903
  H        23.5530700472       19.7215724350       13.3440454411
  H        22.2991105558       16.1785863134       11.2532756457
  H        24.4831310976       16.1368815498       10.0357832658
  H        23.7020214650       17.6893556072       14.7876196114
  H        29.0325315949       21.7054346765        9.7545584026
  H        29.0944976031       21.7723721318        22.594609087638
  H        32.0762121744       18.5302169711       11.0002319056
  H        27.3513510536       19.0726351373        8.0849719577
  H        14.8429011237       19.6538615233       12.1355370822
  H        17.0014996825       19.7072945449       13.3844776039
  H        18.2918625519       16.1786645137       11.2909343452
  H        16.1299897443       16.1425382913       10.0394793483
  H        16.9237543275       17.7335731444       14.8783526263
  H        46.0874666564       15.4341203109       12.0608239564
  H        43.9610440937       15.3679069520       13.3635085911
  H        42.5417074977       18.8040452546       11.1997099883
  H        44.6685153136       18.8449985790        9.8860659657
  H        44.0153034364       17.3120561658       14.8241124370
  H        20.2729992533       17.9168193575       11.4288785096
  H        46.0376269976       15.3858695443        20.023871710238
  H        43.9075158809       15.3253706366        18.727891568438
  H        42.5239630629       18.7992615117        20.853397217138
  H        44.6599338226       18.8451174774        22.151506292738
  H        44.0045286951       17.3011942132        17.263190831338
  H        46.1995216146       26.6826737111        20.613222542638
  H        52.7409829129       21.0626700790        8.1946557471
  H        14.8765526646       19.7082152503        19.912317773038
  H        17.0781380260       19.8235632167        18.742672453638
  H        18.3766520507       16.3073070822        20.850826509838
  H        16.1764510649       16.2158505746        22.030828219238
  H        16.9585639795       17.7825729181        17.314649026038
  H        52.3218036707       21.6730244277        22.284287140538
  H        52.0129891111       21.7017692314        9.4957884949
  H        49.0680057133       18.6074220168        21.193846753838
  H        13.2477423364       19.0170104523        23.968502608438
  H        29.9251076751       12.4847727429       12.2748192796
  H        28.8549645535       10.5570395924       13.4475839577
  H        25.2543633260       11.1781721027       11.1785652131
  H        26.3447440772       13.0927270061        9.9964177141
  H        27.1287573128       11.6947343039       14.7984025509
  H        30.9975542150       22.7806171246       12.0107941501
  H        32.0066980394       24.6558469823       13.3072793293
  H        35.7040466995       24.1258020296       11.1741831105
  H        34.6745093980       22.2573178520        9.8711471369
  H        33.6719488756       23.5694893562       14.7568770320
  H        25.6995574179        8.5954377314       11.4144331922
  H        30.8579367430       22.6396161742        19.831857576238
  H        31.8779711549       24.5280497336        18.571339497038
  H        35.4648449185       24.1504813220        20.916942939238
  H        34.4259662264       22.2716633147        22.185684157238
  H        33.6048694917       23.5549391014        17.192583903638
  H        40.5959195990       17.0922107282        20.644716446438
  H        32.5062512914       14.1459158376        8.2518951150
  H        29.8528170544       12.5857976809        19.881332268338
  H        28.8294411817       10.6793475411        18.636649869238
  H        25.1941605842       11.1758654443        20.882238455238
  H        26.2402993842       13.0653184164        22.138739206938
  H        27.1216240080       11.7149864840        17.235336272938
  H        33.3037538113       14.2172021007        22.446202388338
  H        33.4066341248       14.3997324432        9.6014238244
  H        32.0819256604       18.4813213095        21.100442036738
  H        30.1854308659       14.1544940163        8.0806794168
  H        16.1180246664        2.9633527614       12.1294267361
  H        14.9529002583        4.8205334130       13.3220773241
  H        17.3671996617        7.6858383072       11.2108718398
  H        18.5158936379        5.8182491884       10.0112066210
  H        16.7537944947        5.7397511292       14.7715208966
  H        44.8277632790       32.1402219469       11.9771378871
  H        45.9370384438       30.3414284928       13.3065788464
  H        43.6825382953       27.3780878159       11.1522628275
  H        42.5999023385       29.1899330558        9.8095292811
  H        44.2304976351       29.4368084229       14.7690563831
  H        14.8513857485        8.5462589500       11.3633012515
  H        44.8999618643       32.2341076051        19.921657325938
  H        46.0249247717       30.4131288720        18.642220472738
  H        43.7638438723       27.4841170968        20.835427762238
  H        42.6459516062       29.3177979375        22.114416754438
  H        44.2688010706       29.4706167347        17.208110301238
  H        34.9588190917       26.6208863594        20.647185861838
  H        36.6055011722       35.1338453686        8.1808005266
  H        16.1435155594        3.0130165521        19.894092426438
  H        14.9739327547        4.8564100087        18.678380236338
  H        17.3967028556        7.7472378159        20.744476980338
  H        18.5437292087        5.8933296379        21.972070123638
  H        16.7648722326        5.7556804804        17.209080591838
  H        36.2792914965       34.4819024982        22.262778600938
  H        36.3814846572       34.2086789901        9.4994945983
  H        40.5784617405       33.2015247265        21.144059942938
  H        17.4714331435        1.9470156204        23.963863680738
  H        29.2155168934       19.3414356390       12.6394869597
  H        31.9525340387       15.7961425253        19.535303016538
  H        31.3107907116       15.5531364188       12.4771912971
  H        28.1281085800       17.8079657597       14.4756363637
  H        29.4406323537       15.4657799333       14.5580684030
  H        32.9235230169       16.8392980263        17.288048441738
  H        18.8545700680        0.8691051900       12.3352710910
  H        40.5282428833       35.2287869692        19.941839415938
  H        42.3242999950       34.4191765596        19.580067854038
  H        22.0878549118        0.6926198059       12.3510372697
  H        11.5971362322       18.7130494802       12.3821297030
  H        52.2648779847       18.4305648624        19.666881740138
  H        49.2546851804       16.4767420225        19.574521576338
  H        10.1507457607       15.7981164971       12.2926717269
  H        50.8498448277       17.6924248313        19.944067387438
  H        10.0464762418       17.3945705717       12.0519990868
  H        20.2164692893        0.0025597387       12.0416878357
  H        39.1838285503       36.1244736184        19.676419689138
 Ni        30.5650061700       17.2995548551        18.650194407238
 Ni        31.1955879119       16.2065730091       15.908217288238
 Ni        29.7180913804       17.9409960583        16.325288863838
 Ni        30.1360374031       17.3076142800       13.2408393613
  O        10.6500312040       14.3651511969        21.475681051138
  O        12.6132966248       14.6577137410        22.573688130038