     570
 i =      179, E =     -4745.5948314417
  C        11.8584147297       14.0533000343        21.731441140238
  C        12.4558040953       12.8902213902        21.013285677238
  C        11.7044248449       12.1720317597        20.070812219138
  C        12.2807569056       11.1098335264        19.378412477938
  C        13.6209990147       10.7392268189        19.606869230138
  C        14.3537258466       11.4418962503        20.581354519238
  C        13.7808707163       12.5068268560        21.272947128338
  C        14.2606162411        9.6486967653        18.833386692338
  C        14.2559820950        9.6566862302        17.411677688538
  C        13.7428830556       10.7588020916        16.657712643738
  C        49.1264295608       21.2335642903        21.869561345038
  C        48.5495841233       22.4012383713        21.142435785338
  C        49.2996707131       23.0687157869        20.161555058238
  C        48.7326807696       24.1077465592        19.428301384938
  C        47.4020403631       24.5091977146        19.656760824338
  C        46.6710300258       23.8601896530        20.670152293338
  C        47.2335242539       22.8153569786        21.399561064038
  C        46.7719000146       25.5869081252        18.859461146838
  C        46.7610490005       25.5572959495        17.437707909438
  C        47.2610137613       24.4421971177        16.694244680338
  C        14.8599923400        8.5703934653        16.698394479138
  C        14.8913830827        8.5966993587        19.510008922838
  C        49.1129595729       21.2035545194       10.1453351941
  C        48.5275902900       22.3647726319       10.8724519055
  C        49.2668058924       23.0255921400       11.8653326952
  C        48.6903897007       24.0600636889       12.5967998440
  C        47.3599380484       24.4567533624       12.3585615055
  C        46.6395226013       23.8117115773       11.3351194872
  C        47.2131453789       22.7758709832       10.6033164902
  C        46.7214568354       25.5316681133       13.1495980985
  C        46.7333817336       25.5281067724       14.5712921677
  C        47.2487213760       24.4288633512       15.3276934196
  C        40.6292140753       17.1215331961       15.3234640917
  C        40.6531773726       17.1540442551       12.5142493381
  C        11.8826606484       14.0861829376       10.2853713424
  C        12.4716714885       12.9100543510       10.9892485160
  C        11.7144967700       12.1778876904       11.9164622564
  C        12.2809174244       11.0953905080       12.5849338782
  C        13.6192602989       10.7205010975       12.3521300960
  C        14.3566718674       11.4347779901       11.3898919100
  C        13.7914285972       12.5159822505       10.7171335099
  C        14.2529778412        9.6239762687       13.1227128473
  C        14.2519546139        9.6441944491       14.5445655655
  C        13.7422499946       10.7532090628       15.2916639695
  C        22.5130917825        3.2441144933        21.743353255838
  C        23.2310668698        4.3477849788        21.044719067838
  C        24.2279366475        4.0642555008        20.099351632838
  C        24.8590526921        5.1013795968        19.417513569138
  C        24.5092225586        6.4444318797        19.660789934838
  C        23.5407615807        6.7194362761        20.643472377638
  C        22.9048915400        5.6840806753        21.323788034238
  C        25.1186385724        7.5485931428        18.884578953938
  C        25.0897279565        7.5413723163        17.463120547838
  C        24.3832949761        6.5443281052        16.718087616238
  C        38.2975129878       31.9278615539        21.841980539538
  C        37.5543528945       30.8401037337        21.141305450238
  C        36.5879249957       31.1490129972        20.171451603538
  C        35.9552244153       30.1326049282        19.460900020738
  C        36.2732861304       28.7805382154        19.696415254838
  C        37.2091134281       28.4790590672        20.704090790738
  C        37.8457593232       29.4945150274        21.414308914938
  C        35.6608595151       27.6940697941        18.896674328538
  C        35.6997763041       27.7104858385        17.474877214738
  C        36.4129301711       28.7113168189        16.742228201638
  C        25.7149181290        8.6095778722        16.742459228038
  C        25.7194515817        8.6218027522        19.554502721938
  C        38.3301037490       31.9608776927       10.1603776625
  C        37.6123111948       30.8890527543       10.9101258971
  C        36.6788025086       31.2008114983       11.9108568926
  C        36.0668043669       30.1855700669       12.6440306661
  C        36.3731483887       28.8312888584       12.4014463372
  C        37.2878272439       28.5294507541       11.3735427727
  C        37.9015668037       29.5412570756       10.6412516469
  C        35.7555588736       27.7344751164       13.1835752766
  C        35.7478722422       27.7313342561       14.6062951194
  C        36.4344881116       28.7223934304       15.3758081482
  C        46.1353397483       26.6207341855       15.2814035281
  C        46.0874739983       26.5799883177       12.4735144944
  C        22.4609643943        3.2554801275       10.2577696400
  C        23.1557554119        4.3631131684       10.9812556504
  C        24.1574286714        4.0749991321       11.9219354884
  C        24.7866934257        5.1036745449       12.6187227916
  C        24.4345883515        6.4501901708       12.3974001717
  C        23.4558188840        6.7315023847       11.4253948867
  C        22.8218101566        5.7030675751       10.7290757103
  C        25.0681205776        7.5467394037       13.1713011131
  C        25.0642551345        7.5398300724       14.5941437086
  C        24.3693375611        6.5445802219       15.3514737429
  C        26.5706429234       17.8283708326        21.777029427538
  C        25.2678827695       17.8883141173        21.048985334838
  C        25.0063880602       18.9090568648        20.122238258638
  C        23.7959268236       18.9386420600        19.432967049438
  C        22.8148093085       17.9513353225        19.652136186838
  C        23.0716881126       16.9529572343        20.609636616238
  C        24.2837479732       16.9182337281        21.295936439238
  C        21.5468140437       17.9454205683        18.883375124238
  C        21.5548260093       17.9321326530        17.462166828038
  C        22.7655701847       17.8109513886        16.710121719038
  C        34.4230485904       17.2217970485        21.904535029438
  C        35.7138092683       17.1594870366        21.158646221738
  C        35.9120498365       16.1945634686        20.158803251438
  C        37.0943535995       16.1751438845        19.423526161638
  C        38.1113473334       17.1184286099        19.669119294138
  C        37.9154055662       18.0632075793        20.694516237338
  C        36.7306146633       18.0885841705        21.426283957638
  C        39.3678553647       17.1221407423        18.885463982938
  C        39.3669000742       17.1398668641        17.463605659038
  C        38.1623353096       17.2687747651        16.702762324938
  C        20.3125752052       17.9530174057        16.747569711338
  C        20.3208210762       17.9427681539        19.560560655338
  C        34.4718487586       17.2451210887       10.1809899721
  C        35.7758806530       17.1646701141       10.9011082506
  C        35.9864961054       16.1832385170       11.8810344207
  C        37.1722026976       16.1632392707       12.6098648879
  C        38.1755881561       17.1236828143       12.3776113650
  C        37.9719577883       18.0791144602       11.3645510468
  C        36.7839741431       18.1045205144       10.6390790605
  C        39.4207452826       17.1414632652       13.1759867187
  C        39.3939785870       17.1503785724       14.5971672697
  C        38.1749309775       17.2717170009       15.3360943266
  C        35.1072596908       26.6548402096       15.3062188686
  C        35.1714475299       26.6623421586       12.4964426969
  C        26.5731596151       17.8184436774       10.3303154868
  C        25.2633594773       17.8620782837       11.0464006674
  C        24.9950860417       18.8795984302       11.9756413226
  C        23.7762319324       18.9088691776       12.6485327799
  C        22.7965508375       17.9236352836       12.4116105343
  C        23.0614218111       16.9294544562       11.4531319259
  C        24.2813128752       16.8962254032       10.7805460600
  C        21.5280837552       17.9158609230       13.1752945508
  C        21.5450153457       17.9146839437       14.5959715109
  C        22.7596394098       17.8012009258       15.3443131326
  C        14.0463790409       17.8313518102       10.2850106069
  C        15.3537067866       17.8946869750       11.0038902270
  C        15.6158334071       18.9108845126       11.9356715360
  C        16.8264940347       18.9369071951       12.6250128158
  C        17.8071751606       17.9490939351       12.4042174813
  C        17.5507940613       16.9577624583       11.4386506959
  C        16.3398249882       16.9277957967       10.7503059963
  C        19.0733539723       17.9330864899       13.1767548437
  C        19.0640134984       17.9352559004       14.5989031175
  C        17.8522592212       17.8427631685       15.3536643467
  C        46.8057656860       17.2193704742       10.1601637459
  C        45.5181626007       17.1593869549       10.9088758527
  C        45.3149463602       16.1836003542       11.8969775909
  C        44.1350941038       16.1666587588       12.6358688511
  C        43.1287401279       17.1255736788       12.4083925428
  C        43.3297141811       18.0815360122       11.3942789643
  C        44.5101685011       18.1023998012       10.6563207294
  C        41.8754150258       17.1364359261       13.1961049427
  C        41.8778394318       17.1326634861       14.6179942238
  C        43.0849462214       17.2232749970       15.3799826628
  C        20.3067443347       17.9442988052       15.3136336629
  C        20.3005651121       17.9052241537       12.5009507595
  C        46.7831402648       17.2298472658        21.880214740538
  C        45.4775146939       17.1205255971        21.169333132438
  C        45.2580832983       16.1222064537        20.207925695538
  C        44.0684452099       16.0939252937        19.484175557738
  C        43.0678756762       17.0605687139        19.704577828538
  C        43.2768076052       18.0269240198        20.706372493838
  C        44.4677189815       18.0619077538        21.424960737038
  C        41.8225952820       17.0856104705        18.905417373738
  C        41.8509169918       17.1055168839        17.484415671538
  C        43.0721924297       17.2078951253        16.746406550838
  C        46.1531744092       26.6372356750        16.715943597538
  C        46.1618624206       26.6559758974        19.525586637438
  C        14.0392551984       17.8296258559        21.697567389138
  C        15.3541316663       17.9021353423        20.999470407538
  C        15.6233655451       18.9272977030        20.081000205838
  C        16.8480276861       18.9678753916        19.419749207938
  C        17.8268415198       17.9821507953        19.653660756938
  C        17.5634215548       16.9830114329        20.607587904938
  C        16.3409356119       16.9422200239        21.272521160738
  C        19.0930826685       17.9652371546        18.887004995038
  C        19.0743417538       17.9514230333        17.466135242938
  C        17.8574350488       17.8496518463        16.719813110338
  C        28.8122028641       14.0897525761       10.3924927925
  C        28.2024832092       12.9116373500       11.0753400446
  C        28.9289484429       12.1654199744       12.0149713888
  C        28.3310518152       11.0899440075       12.6669314435
  C        26.9923558173       10.7361677440       12.4032772252
  C        26.2883065634       11.4605591022       11.4245516144
  C        26.8840995565       12.5362272028       10.7709326960
  C        26.3244866324        9.6568605968       13.1664303889
  C        26.3174646561        9.6816336381       14.5876874042
  C        26.8274684435       10.7918550236       15.3329600956
  C        32.1784879901       21.2418734365       10.1457298160
  C        32.7720280714       22.4086807597       10.8657718312
  C        32.0165489523       23.0956667163       11.8289010559
  C        32.5837718104       24.1356431002       12.5593003486
  C        33.9226633838       24.5184895947       12.3475616892
  C        34.6609652202       23.8502840209       11.3525587128
  C        34.0960259223       22.8044608205       10.6242381192
  C        34.5464092633       25.5953101170       13.1515292112
  C        34.5215951397       25.5706787658       14.5734411845
  C        34.0035454293       24.4577353969       15.3084449442
  C        25.7064242675        8.6051433557       15.3076796283
  C        25.6833496514        8.6082770463       12.4941473673
  C        32.0725353261       21.2005968037        21.867865040838
  C        32.6403635682       22.3637804022        21.122128566938
  C        31.9050779560       23.0099162566        20.116622049638
  C        32.4749352645       24.0528128165        19.387808606638
  C        33.7938317306       24.4785974418        19.643488052938
  C        34.5099935579       23.8449954830        20.677467903338
  C        33.9452942378       22.7996143070        21.402590433438
  C        34.4336478017       25.5649554514        18.863805530138
  C        34.4628388858       25.5557801121        17.441396195438
  C        33.9742619530       24.4510800605        16.674864376038
  C        40.6152324720       17.1118952970        16.757908834438
  C        40.5900709523       17.1112934319        19.567621477738
  C        28.7506502948       14.0674684567        21.808357425438
  C        28.1423114703       12.9183105946        21.071891385538
  C        28.8800267898       12.2262704579        20.099431261338
  C        28.3034425315       11.1676295312        19.401517261338
  C        26.9727153357       10.7751019035        19.650082000938
  C        26.2522277884       11.4550324536        20.649908644538
  C        26.8276022924       12.5137246600        21.350211904838
  C        26.3329663123        9.6835251913        18.876868771938
  C        26.3226432900        9.6955076984        17.454811405638
  C        26.8272098793       10.8000330524        16.698868533638
  C        18.1354779574        3.1808181172       10.3170695297
  C        17.4060193212        4.2780671001       11.0157699391
  C        16.3901065492        3.9995746672       11.9430010917
  C        15.7422139158        5.0394525119       12.6065315203
  C        16.0942042838        6.3831627641       12.3670863137
  C        17.0838215919        6.6528457016       11.4036351805
  C        17.7330817222        5.6155955573       10.7385820434
  C        15.4697259502        7.4908017410       13.1301189899
  C        15.4851545351        7.4902995082       14.5518311903
  C        16.1868289558        6.4967637215       15.3049926725
  C        42.9457357373       31.8595172359       10.0728212194
  C        43.6460836596       30.7717648213       10.8167409466
  C        44.5918324764       31.0930507496       11.8026072495
  C        45.1975361154       30.0874707555       12.5502297348
  C        44.8707573916       28.7344630727       12.3355961954
  C        43.9447188194       28.4201389164       11.3225855781
  C        43.3359191911       29.4253208421       10.5745773644
  C        45.4883500222       27.6551590165       13.1387767531
  C        45.4926885511       27.6808865450       14.5604722898
  C        44.8056408577       28.6889834391       15.3070703618
  C        14.8561416165        8.5627990371       15.2641575041
  C        14.8741549743        8.5623508204       12.4514986299
  C        42.9462860058       31.9615738689        21.798702071938
  C        43.6914606931       30.8853969568        21.085178651538
  C        44.6564058078       31.1912968343        20.113233224038
  C        45.2778810744       30.1716990745        19.395474881838
  C        44.9536798002       28.8214333829        19.632766752438
  C        44.0196966099       28.5237551998        20.643062895838
  C        43.3914840038       29.5405390927        21.355267009438
  C        45.5627412289       27.7240411415        18.847514231938
  C        45.5331388429       27.7173605595        17.426220124338
  C        44.8269551426       28.7076700775        16.673252663838
  C        35.0798365460       26.6458978934        16.741540300538
  C        35.0446772340       26.6215435183        19.551793304138
  C        18.1486356121        3.2468147576        21.696435713938
  C        17.4299296190        4.3437074307        20.987075003538
  C        16.4144583543        4.0523726977        20.063842674938
  C        15.7660722538        5.0829773405        19.388441529838
  C        16.1209939722        6.4281805407        19.610853429938
  C        17.1126957227        6.7116156091        20.567745520438
  C        17.7604709177        5.6827376513        21.247493359138
  C        15.4903902044        7.5238748524        18.838426235938
  C        15.4963122943        7.5073339796        17.417278448338
  C        16.1931164879        6.5056402733        16.670601500838
  H        10.6725595097       12.4667335138        19.893198575538
  H        11.6946173591       10.5518840489        18.651344414538
  H        15.3903877742       11.1664466468        20.763917883638
  H        14.3499719386       13.0692101945        22.009305593438
  H        13.3758632152       11.6309479488        17.190976049138
  H        50.3224321367       22.7488120004        19.976924032838
  H        49.3191285772       24.6231211026        18.670771813638
  H        45.6414442659       24.1607569579        20.853137275038
  H        46.6623657951       22.2899783668        22.161453461238
  H        47.6293457628       23.5757338351        17.235931857738
  H        14.8716214315        8.5877718788        20.598314185438
  H        50.2868763715       22.7028398635       12.0602314548
  H        49.2687049215       24.5756042453       13.3602993115
  H        45.6100666394       24.1088136714       11.1461125645
  H        46.6522432729       22.2536468609        9.8318522482
  H        47.6073477968       23.5516603469       14.7968349449
  H        40.6615020868       17.1227105328       11.4264304363
  H        48.6868569813       14.0948734459        23.789723173838
  H        10.6813941504       12.4677660728       12.0946810297
  H        11.6893113488       10.5257730496       13.2984019302
  H        15.3916003611       11.1557527454       11.2028579281
  H        14.3633660790       13.0842750926        9.9874515959
  H        13.3753510834       11.6218138347       14.7530721291
  H        47.9301592823       14.2173677549        9.7108793892
  H        47.7798690951       14.3729621167        22.484704564738
  H        49.0831205963       18.5524375500       10.8673129949
  H        10.4155534566       14.1342795557        7.9988325917
  H        24.4856577480        3.0247538135        19.909181890138
  H        25.6320201120        4.8811156069        18.684415404038
  H        23.2635019468        7.7534264432        20.837879197638
  H        22.1349602029        5.8872787233        22.064121659138
  H        23.8209522174        5.7890187484        17.259292593038
  H        36.3574812225       32.1935994227        19.975912445438
  H        35.2068634399       30.3774489740        18.710328632838
  H        37.4630034772       27.4383295177        20.894753509838
  H        38.5935771083       29.2676011402        22.170579711038
  H        36.9748926305       29.4605696197        17.292132084338
  H        25.7549974295        8.6049880882        20.642301088238
  H        36.4518384830       32.2455902600       12.1107736493
  H        35.3362492270       30.4348360554       13.4104732478
  H        37.5385745439       27.4887069083       11.1791736753
  H        38.6280989876       29.3111250258        9.8657057526
  H        37.0137103439       29.4798510030       14.8555011897
  H        46.1086788873       26.5872926787       11.3854737486
  H        44.6682534351       35.1161360526        23.803793497938
  H        24.4337027707        3.0362563809       12.0882820169
  H        25.5672451929        4.8732493354       13.3406644873
  H        23.1724990988        7.7665593324       11.2454870358
  H        22.0504723212        5.9174932738        9.9929568144
  H        23.7956643531        5.7900855401       14.8210484400
  H        44.9537983905       34.3903644148        9.6951523849
  H        44.9016903494       34.2067085043        22.480489564538
  H        40.6657903465       33.2089913234       10.8531527657
  H        23.1504623139        1.9577234396        8.0054919611
  H        25.7608611858       19.6757222646        19.960469242338
  H        23.5937574349       19.7349560975        18.719725341738
  H        22.3231734241       16.1827420292        20.784098762338
  H        24.4977271990       16.1353086082        22.019711718438
  H        23.7023297145       17.6922796666        17.246960260238
  H        35.1245478863       15.4696256268        19.966791236238
  H        37.2463905560       15.4189657721        18.656439024538
  H        38.6919289860       18.8002718712        20.888494721138
  H        36.5633323273       18.8328413183        22.201471541038
  H        37.2222655712       17.3968104940        17.231650350438
  H        20.3222875077       17.9735960103        20.648649244238
  H        35.2011830166       15.4549648328       12.0690590464
  H        37.3344460205       15.4000815267       13.3678692375
  H        38.7408571161       18.8267425797       11.1810276291
  H        36.6037995364       18.8604425508        9.8783871299
  H        37.2446866894       17.4010683504       14.7901863093
  H        35.1569075041       26.6852084068       11.4083997888
  H        28.5071708337       21.0755815628        23.966558579638
  H        25.7481903135       19.6475294675       12.1413797856
  H        23.5639651021       19.7036827463       13.3605564737
  H        22.3128593337       16.1620311594       11.2667281492
  H        24.5018316595       16.1195846465       10.0519697114
  H        23.6922942876       17.6729858875       14.8035711340
  H        29.0126239134       21.7110061178        9.7589743971
  H        29.1621053895       21.7287561736        22.606204672238
  H        32.1301191380       18.5624625720       10.9749010148
  H        27.3706897615       19.0278630675        8.0784910272
  H        14.8598945576       19.6744416695       12.1049537615
  H        17.0268862302       19.7297916142       13.3424663587
  H        18.2984575594       16.1876335264       11.2602294729
  H        16.1284039760       16.1495342967       10.0208749400
  H        16.9120245573       17.7328882078       14.8212448884
  H        46.0984874938       15.4517337562       12.0785932902
  H        43.9775059448       15.4016876941       13.3929886839
  H        42.5606942572       18.8300074282       11.2148442801
  H        44.6815385416       18.8545241188        9.8898057384
  H        44.0281448301       17.3373551171       14.8533409518
  H        20.3004123762       17.9282358773       11.4126414629
  H        46.0359172157       15.3835256120        20.028294663038
  H        43.9021423298       15.3199391125        18.738064102838
  H        42.5093979623       18.7774402395        20.884102002438
  H        44.6499884449       18.8280743346        22.174525049038
  H        44.0056707804       17.3088737042        17.292386991438
  H        46.1984679346       26.6824541312        20.613040122538
  H        52.7409011193       21.0625264908        8.1945603234
  H        14.8635530206       19.6852326511        19.903972195038
  H        17.0600824993       19.7656782972        18.711218083638
  H        18.3130313253       16.2162017365        20.791675820538
  H        16.1190037709       16.1605870971        21.994983588638
  H        16.9209811208       17.7446960506        17.259500414338
  H        52.3216241023       21.6733892057        22.284825389338
  H        52.0129228838       21.7019554912        9.4955841889
  H        49.0660389650       18.6075644069        21.194268163038
  H        13.2468509271       19.0169891925        23.966370410238
  H        29.9601216410       12.4429632248       12.2210686145
  H        28.8960299662       10.5111737610       13.3944414050
  H        25.2545177553       11.1959653932       11.2119691654
  H        26.3381669441       13.1163021137       10.0309608886
  H        27.1939499399       11.6589819451       14.7918675873
  H        30.9866552441       22.7900697359       11.9978016911
  H        31.9923259134       24.6670612260       13.3017172145
  H        35.6973246265       24.1353742452       11.1831802801
  H        34.6724195082       22.2637464635        9.8770001369
  H        33.6549913555       23.5870868672       14.7602357935
  H        25.7096397229        8.5899523475       11.4060350799
  H        30.8915807781       22.6727882070        19.910289757938
  H        31.8967801890       24.5540751603        18.614572590738
  H        35.5310249449       24.1602608947        20.882261290138
  H        34.5054841538       22.2902311142        22.183035366538
  H        33.6029139735       23.5750351083        17.199097132538
  H        40.5804512569       17.0700970652        20.655165969838
  H        32.5075446707       14.1554457883        8.2489038778
  H        29.9061347535       12.5329603175        19.909439110238
  H        28.8838760309       10.6264511385        18.657400472938
  H        25.2226466490       11.1647056838        20.848968444538
  H        26.2680959347       13.0538800937        22.110276961338
  H        27.1918687780       11.6737329141        17.231151227438
  H        33.3062920122       14.2262595532        22.452416235438
  H        33.4078002563       14.4098488847        9.5988971690
  H        32.0920428374       18.5083032701        21.159093682338
  H        30.2309447729       14.1908417258        8.0779824372
  H        16.1180610083        2.9630200839       12.1291688612
  H        14.9525873396        4.8199478695       13.3219573366
  H        17.3663020495        7.6857432212       11.2107468187
  H        18.5153352706        5.8182701615       10.0109664243
  H        16.7533293161        5.7394053410       14.7714530957
  H        44.8282944568       32.1401190599       11.9766441645
  H        45.9375549433       30.3411654125       13.3060460190
  H        43.6816998076       27.3781129120       11.1526971192
  H        42.5991012390       29.1900473848        9.8100831800
  H        44.2303186813       29.4367534494       14.7687289421
  H        14.8501726515        8.5453344611       11.3632900841
  H        44.9002626594       32.2339632349        19.922096927838
  H        46.0250704547       30.4128952622        18.642510098238
  H        43.7622599904       27.4840695093        20.834228641538
  H        42.6445841059       29.3177650932        22.113326181638
  H        44.2684632445       29.4705706515        17.207833140838
  H        34.9966511063       26.6329128247        20.639090446138
  H        36.6052955022       35.1340374275        8.1806669908
  H        16.1432213753        3.0127882274        19.894396851538
  H        14.9735296407        4.8560863630        18.678607767838
  H        17.3964525041        7.7470663904        20.744326768838
  H        18.5436534692        5.8931617788        21.971932755738
  H        16.7645405493        5.7554157075        17.209085735838
  H        36.2791490227       34.4818659290        22.263337214838
  H        36.3814232551       34.2088338175        9.4994699120
  H        40.5785976709       33.2015322690        21.144047489638
  H        17.4711070628        1.9472031282        23.963838950538
  H        28.8363062484       19.1132972136       12.4175128715
  H        28.7631897350       18.6835386151        19.781392002338
  H        31.8904219637       15.9457614018        19.611513110538
  H        31.2201246296       15.5525641262       12.5334795532
  H        26.9665338751       18.0884723595       14.0766321515
  H        29.2420489638       15.7921556320       14.7962429852
  H        32.7401100538       17.5048435058        17.470613280238
  H        30.8688691617       19.7780202765       14.0127641825
  H        18.8537297628        0.8689544312       12.3353855263
  H        40.5282416927       35.2291365339        19.941968124538
  H        42.3235731220       34.4186440027        19.580544669438
  H        22.0876508953        0.6923725541       12.3512326431
  H        11.5967229967       18.7133610895       12.3827160901
  H        52.2644765391       18.4310210842        19.667203472538
  H        49.2557710458       16.4765168512        19.573758145238
  H        10.1507508491       15.7980649040       12.2924554731
  H        50.8495485400       17.6923931123        19.943991218938
  H        10.0462405483       17.3944233961       12.0520433811
  H        20.2151381226        0.0022454730       12.0419390442
  H        39.1838207498       36.1243949040        19.676108503838
 Ni        30.7804292908       17.8119678638        18.822116080838
 Ni        31.0282650039       16.4950477492        16.240846813438
 Ni        30.5630797011       18.7293251338        16.240209347238
 Ni        30.3528908112       17.5730958080       13.4022320970