     573
 i =      155, E =     -4762.8164887149
  C        11.8588907799       14.0535499194        21.731285108138
  C        12.4564300478       12.8906156764        21.012988110538
  C        11.7046431491       12.1715252019        20.071529558238
  C        12.2810334316       11.1093207560        19.379191568338
  C        13.6216879914       10.7397229100        19.606757977638
  C        14.3549721536       11.4435042908        20.579975115538
  C        13.7820785086       12.5084920163        21.271470609138
  C        14.2612063136        9.6490387732        18.833376886238
  C        14.2564539679        9.6569101759        17.411676818538
  C        13.7432018553       10.7589990421        16.657779129538
  C        49.1268665039       21.2332222485        21.869483777438
  C        48.5500663393       22.4012124693        21.142366570838
  C        49.3000890853       23.0685633040        20.161410188438
  C        48.7331433958       24.1077068329        19.428210514738
  C        47.4026002159       24.5092839453        19.656841314238
  C        46.6716346256       23.8603665896        20.670301931438
  C        47.2341142879       22.8154650682        21.399640317938
  C        46.7723212250       25.5869787924        18.859592112338
  C        46.7611565243       25.5573275218        17.437833459338
  C        47.2610582121       24.4422089543        16.694356238138
  C        14.8603975008        8.5705824092        16.698406339038
  C        14.8920789980        8.5971500925        19.510019803938
  C        49.1132498908       21.2033916216       10.1454366224
  C        48.5278216536       22.3647922936       10.8726642418
  C        49.2670496751       23.0256025356       11.8654908620
  C        48.6906972543       24.0601818233       12.5969252461
  C        47.3602433090       24.4568132314       12.3587504251
  C        46.6397936655       23.8117745223       11.3353500664
  C        47.2133800542       22.7758442418       10.6036173706
  C        46.7217575781       25.5318082411       13.1497311188
  C        46.7333633882       25.5281433190       14.5714339204
  C        47.2487569896       24.4289028835       15.3278052874
  C        40.6368219187       17.1204010958       15.3213482966
  C        40.6575241363       17.1632256076       12.5128409678
  C        11.8830498090       14.0865516876       10.2854626873
  C        12.4724328324       12.9107917464       10.9897760182
  C        11.7148363047       12.1774409189       11.9156949286
  C        12.2814255711       11.0949801289       12.5841091598
  C        13.6203046409       10.7214024370       12.3524115744
  C        14.3584008603       11.4371525818       11.3918477206
  C        13.7929540727       12.5183184174       10.7191560195
  C        14.2538987169        9.6246364389       13.1228190040
  C        14.2525796220        9.6445553590       14.5446615888
  C        13.7426680920       10.7534866337       15.2917333654
  C        22.5106980768        3.2455442675        21.742865591738
  C        23.2202638094        4.3544357979        21.044039281538
  C        24.2194913989        4.0824080623        20.097942541438
  C        24.8395345171        5.1273943418        19.417581135138
  C        24.4755839452        6.4666120410        19.662481005038
  C        23.5048665689        6.7301244331        20.645927763638
  C        22.8806805712        5.6872252609        21.325001496238
  C        25.0726990155        7.5782345303        18.887584768238
  C        25.0497431782        7.5684924243        17.465942246338
  C        24.3552199831        6.5639703697        16.719582287338
  C        38.2988652483       31.9290695450        21.842098593638
  C        37.5581801152       30.8407108485        21.140147171538
  C        36.5921742589       31.1485629905        20.169838162138
  C        35.9625849894       30.1311368354        19.458218483138
  C        36.2841190824       28.7801640148        19.694194047438
  C        37.2198190816       28.4795819876        20.701926437538
  C        37.8532915752       29.4960848974        21.412979540138
  C        35.6729861453       27.6930272176        18.895625424438
  C        35.7100368944       27.7088440656        17.474008029138
  C        36.4252772390       28.7078283041        16.740831978938
  C        25.6689054059        8.6404567306        16.745845090438
  C        25.6577600363        8.6598938739        19.558640792938
  C        38.3307395991       31.9612347564       10.1603024135
  C        37.6137902549       30.8885939070       10.9104330553
  C        36.6806578006       31.1995210607       11.9115876943
  C        36.0699804608       30.1835392484       12.6449070893
  C        36.3773465583       28.8297622761       12.4013853723
  C        37.2917518674       28.5285942465       11.3732157880
  C        37.9042594069       29.5412319344       10.6410228848
  C        35.7605081721       27.7326639789       13.1836327079
  C        35.7549762184       27.7289608861       14.6061608250
  C        36.4453126169       28.7183219653       15.3744653631
  C        46.1353573309       26.6207877496       15.2815619285
  C        46.0878639947       26.5801903714       12.4736659984
  C        22.4609904621        3.2570511286       10.2589763873
  C        23.1534226981        4.3669141531       10.9826946562
  C        24.1536887223        4.0834119428       11.9264329724
  C        24.7791586149        5.1150986117       12.6229504716
  C        24.4252557633        6.4608557638       12.3987123284
  C        23.4483244046        6.7374839309       11.4232820797
  C        22.8180315780        5.7061641606       10.7275107754
  C        25.0524285105        7.5615760818       13.1735312164
  C        25.0399391706        7.5591028913       14.5965250496
  C        24.3478194555        6.5611967281       15.3528997478
  C        26.6294326522       17.8620873962        21.743688798638
  C        25.3236219086       17.9181587928        21.019275711738
  C        25.0758456365       18.9002035166        20.047809168438
  C        23.8571892827       18.9278266954        19.371470939938
  C        22.8534752042       17.9748985213        19.641971924138
  C        23.0997559480       17.0160576644        20.642666942138
  C        24.3175680587       16.9852911020        21.319201661338
  C        21.5780222868       17.9591167929        18.882475043338
  C        21.5766614596       17.9219392073        17.460417606938
  C        22.7807095209       17.7794384169        16.700840241838
  C        34.4766110915       17.2468413800        21.948309163938
  C        35.7646838597       17.1769845489        21.202350202038
  C        35.9473895789       16.2044760940        20.206860716038
  C        37.1183550279       16.1805328323        19.454930781338
  C        38.1368973484       17.1265355581        19.680544308238
  C        37.9574653766       18.0772088059        20.703697335538
  C        36.7835742380       18.1081933401        21.451786841838
  C        39.3850021902       17.1250236323        18.885742983738
  C        39.3785360869       17.1345869568        17.463968706538
  C        38.1711431278       17.2523197873        16.705702519138
  C        20.3297542603       17.9403027521        16.753031326438
  C        20.3536416734       17.9676547853        19.566137738338
  C        34.5055409905       17.2141469617       10.1410758787
  C        35.8020368236       17.1518993445       10.8735776641
  C        36.0108934624       16.1680504922       11.8514478556
  C        37.1876806737       16.1574411992       12.5942034499
  C        38.1839504739       17.1278539980       12.3749414055
  C        37.9813231084       18.0878941146       11.3660016730
  C        36.8006488505       18.1060004158       10.6286838116
  C        39.4263560279       17.1459614002       13.1762845359
  C        39.4002823899       17.1464967450       14.5972654387
  C        38.1815064430       17.2556763438       15.3387126671
  C        35.1120170408       26.6543168283       15.3065578482
  C        35.1742710039       26.6614562458       12.4971726167
  C        26.5720605859       17.8283310341       10.3270351262
  C        25.2574566539       17.8721288414       11.0318985111
  C        24.9957116934       18.8701205849       11.9828033949
  C        23.7770212757       18.8935637923       12.6549169888
  C        22.7912744667       17.9189666621       12.4002443071
  C        23.0479697048       16.9458593423       11.4174480498
  C        24.2672374629       16.9201497905       10.7433769153
  C        21.5271246653       17.8995618914       13.1719513062
  C        21.5506319159       17.8899028553       14.5933436737
  C        22.7680877350       17.7643431921       15.3349119712
  C        14.0463762025       17.8290706775       10.2882131519
  C        15.3506667246       17.8865744724       11.0125866287
  C        15.6080332769       18.8912748598       11.9583445883
  C        16.8171655689       18.9122992216       12.6506903494
  C        17.8025625971       17.9313519993       12.4192589205
  C        17.5500145908       16.9510106658       11.4411275077
  C        16.3404487640       16.9254700809       10.7502550169
  C        19.0712807039       17.9136999105       13.1879612204
  C        19.0695744327       17.9142328852       14.6104404304
  C        17.8626237345       17.8211386565       15.3726310933
  C        46.8067828832       17.2195736666       10.1588911557
  C        45.5192697452       17.1605240919       10.9065986878
  C        45.3140865884       16.1826043751       11.8918467665
  C        44.1343610316       16.1674044496       12.6304238375
  C        43.1319401198       17.1306050240       12.4049157552
  C        43.3345791325       18.0885761068       11.3934446728
  C        44.5147986932       18.1074287342       10.6556087047
  C        41.8799640697       17.1427262513       13.1930230154
  C        41.8843818998       17.1358131973       14.6143208919
  C        43.0932839138       17.2272673122       15.3731049056
  C        20.3162619976       17.9235320618       15.3184217199
  C        20.2951604926       17.8909370661       12.5053695365
  C        46.7870798821       17.2304719385        21.880403609838
  C        45.4844630204       17.1236431932        21.166349071238
  C        45.2667995080       16.1234887177        20.206891245738
  C        44.0797114001       16.0967726266        19.479780205138
  C        43.0825760235       17.0671974541        19.696246189638
  C        43.2901062872       18.0365571823        20.694979208738
  C        44.4783068629       18.0697100063        21.417077599538
  C        41.8380281592       17.0907180123        18.898730153438
  C        41.8630050031       17.1073838089        17.478422771938
  C        43.0832310611       17.2111097998        16.739313897538
  C        46.1531719568       26.6372432458        16.716111467638
  C        46.1624809869       26.6561324459        19.525748929638
  C        14.0461989446       17.8334702490        21.698646244138
  C        15.3675877114       17.9129511975        21.008588700338
  C        15.6365160482       18.9298362840        20.080016714538
  C        16.8649494499       18.9729755779        19.424188534538
  C        17.8531112202       17.9986327593        19.670940709538
  C        17.5910278971       17.0108816717        20.637994549238
  C        16.3644538752       16.9670522512        21.297227059338
  C        19.1202295539       17.9777289352        18.900516618238
  C        19.0950669210       17.9464255181        17.478905746338
  C        17.8750654967       17.8353279663        16.738759404938
  C        28.8098231659       14.0945899050       10.3889681321
  C        28.1915535794       12.9246430552       11.0789804461
  C        28.9065371130       12.1948464518       12.0403883452
  C        28.3041351818       11.1224042890       12.6934813636
  C        26.9725441758       10.7560789947       12.4101252150
  C        26.2797255548       11.4670937153       11.4138024080
  C        26.8797526991       12.5396357319       10.7588335653
  C        26.3001634846        9.6779963622       13.1711544157
  C        26.2794578278        9.7092662330       14.5923090142
  C        26.7744326143       10.8264878598       15.3374680543
  C        32.1811891739       21.2443833662       10.1441082359
  C        32.7750399922       22.4103793197       10.8645444617
  C        32.0196473452       23.0933680171       11.8304896854
  C        32.5857574776       24.1340296980       12.5606969495
  C        33.9237173896       24.5193901410       12.3480762832
  C        34.6623188449       23.8539719961       11.3512568320
  C        34.0981491263       22.8085975320       10.6217846186
  C        34.5474948224       25.5955669676       13.1526149676
  C        34.5220383287       25.5719967384       14.5746246951
  C        33.9967641398       24.4632285663       15.3109646305
  C        25.6699741147        8.6312286245       15.3110252968
  C        25.6689489698        8.6236129291       12.4977463929
  C        32.0811462093       21.2087212944        21.873264062538
  C        32.6444401092       22.3773971537        21.135366465638
  C        31.8984477547       23.0479155561        20.152976966338
  C        32.4719043871       24.0836625322        19.417006339038
  C        33.8034791794       24.4827544035        19.647557764338
  C        34.5296804391       23.8294428826        20.662184225738
  C        33.9631261581       22.7876104133        21.390768372538
  C        34.4435631042       25.5667867118        18.865028427738
  C        34.4658676100       25.5586617496        17.442845634338
  C        33.9676082330       24.4577454795        16.677481789938
  C        40.6254630544       17.1097950658        16.755382041038
  C        40.6085771459       17.1186542951        19.564263150238
  C        28.7116541881       14.0968399549        21.806814199338
  C        28.0913805776       12.9579001468        21.069534159238
  C        28.8257854235       12.2478606480        20.106676383738
  C        28.2403377820       11.1941929962        19.410227112538
  C        26.9036581264       10.8193073071        19.652558729638
  C        26.1849107388       11.5159110053        20.642364984338
  C        26.7682380977       12.5733102939        21.338801079538
  C        26.2649820889        9.7251029830        18.881162405438
  C        26.2633629455        9.7333478460        17.458889211238
  C        26.7645971583       10.8397201376        16.703403135838
  C        18.1354065692        3.1810632914       10.3172562863
  C        17.4061530029        4.2782268747       11.0158203925
  C        16.3904151114        3.9999062935       11.9433510569
  C        15.7427294021        5.0399237646       12.6067969466
  C        16.0946981914        6.3836423940       12.3670974834
  C        17.0841162568        6.6531147999       11.4033528813
  C        17.7331907551        5.6157455709       10.7383451545
  C        15.4703590210        7.4913296250       13.1301181789
  C        15.4856197327        7.4905886215       14.5518235435
  C        16.1872833627        6.4970416068       15.3049815515
  C        42.9458845950       31.8595956167       10.0728994798
  C        43.6462650357       30.7719269210       10.8167890824
  C        44.5914947909       31.0932564600       11.8031516360
  C        45.1972174962       30.0877116951       12.5507981531
  C        44.8710785504       28.7346061306       12.3357259607
  C        43.9456484916       28.4202645893       11.3221350018
  C        43.3368312580       29.4253995764       10.5740954743
  C        45.4886119921       27.6553045996       13.1389357108
  C        45.4927130269       27.6809444652       14.5606309691
  C        44.8056475629       28.6889940544       15.3072733034
  C        14.8566352339        8.5630607970       15.2641899464
  C        14.8751266442        8.5631229005       12.4515226393
  C        42.9464458872       31.9616309169        21.798800148238
  C        43.6917379979       30.8855170405        21.085413569638
  C        44.6560322476       31.1914627613        20.112818458538
  C        45.2775972829       30.1718899045        19.395120203738
  C        44.9541804945       28.8215262921        19.633030941538
  C        44.0211354816       28.5238424980        20.644228095738
  C        43.3928353165       29.5405852764        21.356401626038
  C        45.5631237176       27.7241276226        18.847733299238
  C        45.5332814541       27.7174259450        17.426434081438
  C        44.8269596804       28.7076419744        16.673459385938
  C        35.0862300300       26.6459473607        16.741731139338
  C        35.0589152716       26.6205664729        19.552472286138
  C        18.1485964667        3.2471157481        21.696416615238
  C        17.4301901077        4.3438870113        20.987032481438
  C        16.4149658146        4.0526547904        20.063452461738
  C        15.7667185442        5.0833186045        19.388083168738
  C        16.1214301753        6.4285485937        19.610822425138
  C        17.1128661185        6.7118819378        20.568038801938
  C        17.7604794040        5.6829464692        21.247810162838
  C        15.4908867925        7.5242228120        18.838406882638
  C        15.4967064479        7.5075302114        17.417279961538
  C        16.1935466742        6.5058818418        16.670584158538
  H        10.6724478187       12.4655215736        19.894671591338
  H        11.6946918277       10.5506871491        18.652811737238
  H        15.3921100987       11.1691512233        20.761468626438
  H        14.3516522719       13.0719617792        22.006634380638
  H        13.3762017624       11.6311219071        17.191101552538
  H        50.3228096420       22.7485343481        19.976706943038
  H        49.3196318733       24.6230138763        18.670663107038
  H        45.6421304973       24.1611042398        20.853452872838
  H        46.6631546827       22.2901385504        22.161715541838
  H        47.6295972933       23.5758429060        17.236062360338
  H        14.8725336728        8.5885021608        20.598329324038
  H        50.2871519161       22.7028508787       12.0602856826
  H        49.2691170276       24.5757299636       13.3603472316
  H        45.6103453024       24.1089125805       11.1463706678
  H        46.6525786498       22.2535575798        9.8321229984
  H        47.6075461364       23.5517970423       14.7968889848
  H        40.6643965567       17.1362034128       11.4249354312
  H        48.6872395822       14.0948169257        23.789902726138
  H        10.6813103727       12.4664086536       12.0929536577
  H        11.6895729050       10.5244323363       13.2966334096
  H        15.3939247335       11.1594708620       11.2061151985
  H        14.3653875969       13.0878755470        9.9908435640
  H        13.3758337809       11.6220881935       14.7530798031
  H        47.9301617726       14.2184977288        9.7106424141
  H        47.7801500361       14.3738031823        22.485249299538
  H        49.0845763442       18.5524824022       10.8675817513
  H        10.4161657701       14.1342336365        7.9986774937
  H        24.4880905352        3.0459717976        19.905868255838
  H        25.6147008542        4.9162922436        18.684117063038
  H        23.2162544045        7.7607612440        20.841635136538
  H        22.1089307610        5.8813947167        22.065766851138
  H        23.7959656678        5.8055914297        17.259643734738
  H        36.3598888597       32.1928804540        19.975016685138
  H        35.2142494781       30.3741057453        18.707015317738
  H        37.4761155282       27.4393114579        20.891790567538
  H        38.6014192220       29.2713612836        22.169566274838
  H        36.9895123846       29.4556400385        17.290372754638
  H        25.6885791964        8.6453172386        20.646637726038
  H        36.4531567521       32.2441323549       12.1118213509
  H        35.3397355970       30.4319188918       13.4119408240
  H        37.5433186747       27.4881115831       11.1785053292
  H        38.6308498900       29.3122332538        9.8651930552
  H        37.0258043869       29.4740202718       14.8529594954
  H        46.1094314669       26.5876081479       11.3856327689
  H        44.6684062410       35.1162964843        23.803655988738
  H        24.4321254682        3.0457403584       12.0960420814
  H        25.5582481460        4.8871586974       13.3472881653
  H        23.1629174953        7.7714509667       11.2403063099
  H        22.0480527448        5.9181849983        9.9892742269
  H        23.7822060690        5.8012921954       14.8215238287
  H        44.9542383028       34.3908253560        9.6954833119
  H        44.9019783119       34.2069697428        22.480289382838
  H        40.6668673820       33.2096101712       10.8534781499
  H        23.1502528045        1.9583951403        8.0054298741
  H        25.8493555030       19.6366045464        19.840094879438
  H        23.6678535916       19.6963539077        18.625070970838
  H        22.3372474287       16.2708218732        20.859864631838
  H        24.5181667865       16.2324099745        22.077760962038
  H        23.7201354309       17.6498950838        17.230299453138
  H        35.1527905990       15.4826934892        20.031489101638
  H        37.2600874137       15.4205349659        18.689656382238
  H        38.7379945733       18.8139898251        20.881778635038
  H        36.6268712026       18.8579289105        22.223856257738
  H        37.2304792204       17.3719033882        17.235794475238
  H        20.3614648285       18.0163331465        20.653653157838
  H        35.2303483553       15.4314025498       12.0265489615
  H        37.3496170767       15.3927727891       13.3507434975
  H        38.7458778812       18.8426435333       11.1938588456
  H        36.6203185384       18.8645232482        9.8705822019
  H        37.2487752064       17.3756470698       14.7948903772
  H        35.1591833773       26.6842794227       11.4091563953
  H        28.5101224913       21.0898935418        23.984450478238
  H        25.7600168061       19.6190040420       12.1778088649
  H        23.5736400411       19.6712164682       13.3879116796
  H        22.2954901404       16.1863503089       11.2152898796
  H        24.4814062957       16.1568816814        9.9991283691
  H        23.6980141450       17.6245130352       14.7918182226
  H        28.9927845566       21.7212585331        9.7723794288
  H        29.1178181594       21.7602578328        22.595881907838
  H        32.1720845818       18.5449501451       10.9602804304
  H        27.3981073905       19.0706680724        8.0837906882
  H        14.8500651384       19.6510409156       12.1354077821
  H        17.0136074208       19.6975092150       13.3775747280
  H        18.3007386772       16.1859651852       11.2538708567
  H        16.1334458114       16.1554741292       10.0108652295
  H        16.9196437480       17.7056440249       14.8461840905
  H        46.0959401305       15.4484366871       12.0712925083
  H        43.9737552815       15.4015040129       13.3859511506
  H        42.5675676867       18.8396776293       11.2164992810
  H        44.6893242237       18.8605545586        9.8908375926
  H        44.0349681427       17.3429297507       14.8441584278
  H        20.2887422142       17.9207882913       11.4172388871
  H        46.0437544144       15.3827466144        20.032298418338
  H        43.9122485833       15.3217622738        18.735016300038
  H        42.5238300628       18.7894068828        20.867403848938
  H        44.6619090415       18.8368421050        22.165265532138
  H        44.0171897527       17.3130648877        17.284284846638
  H        46.1995084283       26.6827169179        20.613187220138
  H        52.7411679262       21.0626089357        8.1946542867
  H        14.8726872438       19.6803173537        19.888694315438
  H        17.0716043696       19.7645962868        18.707130014738
  H        18.3450634595       16.2520019589        20.836626335038
  H        16.1477005416       16.1911426519        22.027475952538
  H        16.9414360534       17.7305628247        17.283263336938
  H        52.3223572614       21.6733234769        22.284201975938
  H        52.0130765629       21.7019199095        9.4955900498
  H        49.0677322487       18.6076446484        21.193889554038
  H        13.2476888971       19.0162908606        23.967129350638
  H        29.9318813176       12.4832994385       12.2616471794
  H        28.8605726795       10.5553806073       13.4366518195
  H        25.2507365502       11.1949839528       11.1878196429
  H        26.3417350112       13.1096865801       10.0054242183
  H        27.1362713288       11.6957648231       14.7967510027
  H        30.9924239212       22.7819786336       12.0045060137
  H        31.9937345256       24.6630691152       13.3043331054
  H        35.6981474261       24.1407589066       11.1814905230
  H        34.6747703417       22.2700574287        9.8731435879
  H        33.6400445998       23.5957920148       14.7631113994
  H        25.7041423200        8.6015949554       11.4099334233
  H        30.8703931550       22.7421030757        19.971220893838
  H        31.8867982846       24.6016108714        18.660091584538
  H        35.5598956188       24.1262092469        20.847754363338
  H        34.5320422567       22.2603438069        22.152884244238
  H        33.5885663195       23.5857193779        17.202878757438
  H        40.6022109011       17.0819890880        20.651900662638
  H        32.5158784232       14.1340961664        8.2560403985
  H        29.8596225814       12.5284973787        19.921211359938
  H        28.8187275680       10.6425046944        18.672378452038
  H        25.1504501387       11.2401868497        20.836825695738
  H        26.2084166380       13.1263953216        22.089365289938
  H        27.1174877787       11.7194834564        17.233909889338
  H        33.3050357086       14.2106622571        22.434854513938
  H        33.4079967853       14.4103468762        9.6000676107
  H        32.2329857608       18.5271248217        21.164563915638
  H        30.2248635807       14.1926852112        8.0558215238
  H        16.1183030400        2.9634210201       12.1297622188
  H        14.9532631368        4.8206190972       13.3224611471
  H        17.3666520729        7.6859724843       11.2102940207
  H        18.5153060280        5.8184210913       10.0105910293
  H        16.7539975001        5.7398141721       14.7714917543
  H        44.8276185700       32.1403457859       11.9775117757
  H        45.9368933781       30.3415016267       13.3069148736
  H        43.6833314002       27.3781507104       11.1517091523
  H        42.6006431456       29.1900237884        9.8090325443
  H        44.2303671678       29.4368296452       14.7689878815
  H        14.8514553661        8.5464311348       11.3632991943
  H        44.8993514330       32.2341551599        19.921140620838
  H        46.0243021633       30.4131633976        18.641697712938
  H        43.7646217618       27.4840711168        20.836174170538
  H        42.6467392335       29.3177476693        22.115229353138
  H        44.2685457068       29.4706105801        17.208021426138
  H        35.0150638619       26.6310980768        20.639943926038
  H        36.6053710014       35.1341452978        8.1806145154
  H        16.1438336283        3.0130976502        19.893714855238
  H        14.9743777843        4.8565554758        18.677992867838
  H        17.3964810435        7.7473287752        20.744874413338
  H        18.5434220915        5.8934168359        21.972494414638
  H        16.7651523440        5.7557623414        17.209006259638
  H        36.2789155958       34.4824292816        22.262924774338
  H        36.3811989880       34.2089274519        9.4993354495
  H        40.5799838225       33.2024383379        21.143638949438
  H        17.4710925204        1.9475075800        23.963993726738
  H        29.0559933624       19.2340565565       12.5297486074
  H        30.4687302464       19.5453094925        19.639980039838
  H        31.0044611768       15.0194977710        19.944018304038
  H        31.4509316637       15.5279562351       12.4696736790
  H        28.0232579517       17.6750596776       14.4184362062
  H        29.7086169731       15.0895346866       14.4313475472
  H        28.3772156078       17.8903898312        17.784644716238
  H        32.2337665973       18.6092401036       14.6178258028
  H        18.8540297306        0.8692978562       12.3351623340
  H        40.5280516500       35.2288773913        19.941759698738
  H        42.3249976455       34.4197333974        19.579925792638
  H        22.0878749689        0.6921019203       12.3515893335
  H        11.5969308871       18.7130112793       12.3826122977
  H        52.2648611676       18.4310632089        19.666998231038
  H        49.2552386594       16.4768536838        19.574353744538
  H        10.1502491668       15.7982358220       12.2929357569
  H        50.8499840648       17.6923678432        19.943998253838
  H        10.0462664582       17.3945114988       12.0519758125
  H        20.2155495031        0.0025136473       12.0418765740
  H        39.1838511601       36.1245564042        19.676363273138
 Ni        30.3102297045       16.6687808417        18.574287389838
 Ni        31.3246507304       16.1785739304       15.820712228438
 Ni        29.9674633269       18.0912732544       15.826044713738
 Ni        30.3102274289       17.3986060429       13.0776034712