     569
 i =      185, E =     -4729.5240072028
  C        11.8585159401       14.0533513793        21.731359695638
  C        12.4559108564       12.8903164747        21.013134339438
  C        11.7044524102       12.1719318775        20.070874159738
  C        12.2807902540       11.1096995332        19.378531018338
  C        13.6211223859       10.7393191129        19.606795057238
  C        14.3539857186       11.4422733397        20.580960721638
  C        13.7811262114       12.5072355638        21.272499951938
  C        14.2606828518        9.6487024045        18.833379898538
  C        14.2560399951        9.6566626149        17.411673735438
  C        13.7429301882       10.7587873284        16.657727596638
  C        49.1265489580       21.2334177172        21.869588538238
  C        48.5497167482       22.4012159091        21.142498910338
  C        49.2997159825       23.0684928822        20.161429113238
  C        48.7327481570       24.1075535799        19.428174429138
  C        47.4022043432       24.5092138717        19.656801911638
  C        46.6712826332       23.8603765076        20.670372651638
  C        47.2337567926       22.8155277810        21.399783197738
  C        46.7719805946       25.5868741744        18.859475294938
  C        46.7610980832       25.5572673034        17.437712477338
  C        47.2610399989       24.4421786823        16.694214882238
  C        14.8600008116        8.5703348910        16.698407680638
  C        14.8914483430        8.5967227177        19.510018974338
  C        49.1129719508       21.2034963744       10.1453488986
  C        48.5276156209       22.3648065044       10.8724222510
  C        49.2668206726       23.0255240318       11.8653699591
  C        48.6904508796       24.0600486834       12.5968098732
  C        47.3600309575       24.4568089701       12.3585401027
  C        46.6396504450       23.8118896570       11.3349964133
  C        47.2132279808       22.7760033448       10.6032154234
  C        46.7215669783       25.5317399071       13.1495753992
  C        46.7333653986       25.5280983953       14.5712741621
  C        47.2487885848       24.4288822002       15.3276615901
  C        40.6191536227       17.0874489115       15.3113475094
  C        40.6304953032       17.1034433910       12.5015216791
  C        11.8827694909       14.0862851616       10.2854965624
  C        12.4718388150       12.9102498746       10.9894963054
  C        11.7144787461       12.1775826259       11.9161685377
  C        12.2809513421       11.0950747092       12.5845946610
  C        13.6195187370       10.7207144585       12.3522536278
  C        14.3572126119       11.4355899147       11.3906990264
  C        13.7919034124       12.5168007529       10.7179937972
  C        14.2531764511        9.6240792684       13.1227581421
  C        14.2520599471        9.6442020109       14.5446024251
  C        13.7423032728       10.7532007014       15.2916806489
  C        22.5128289335        3.2437587522        21.743682794638
  C        23.2305505780        4.3475413360        21.045579041138
  C        24.2273477010        4.0646093831        20.100037845838
  C        24.8575845214        5.1022583286        19.418271908038
  C        24.5065796555        6.4447775279        19.662191968838
  C        23.5383187134        6.7192271948        20.645132314038
  C        22.9033976917        5.6833939520        21.325321488438
  C        25.1133596403        7.5501173637        18.886045255238
  C        25.0800818410        7.5453929788        17.464736244038
  C        24.3756829484        6.5468671091        16.719803168938
  C        38.2979335742       31.9278354714        21.842108338438
  C        37.5565060687       30.8387959158        21.141663222538
  C        36.5902387436       31.1447947807        20.170795662138
  C        35.9609459717       30.1262700645        19.460082688538
  C        36.2826281533       28.7752598727        19.696734955738
  C        37.2176672969       28.4767138330        20.705920835938
  C        37.8508976571       29.4941547390        21.416052922138
  C        35.6750693140       27.6860001495        18.897277293938
  C        35.7159686939       27.7007011021        17.475573375738
  C        36.4271638430       28.7028823105        16.742835557438
  C        25.6990068539        8.6173350258        16.744418935338
  C        25.7149812781        8.6223858729        19.556299372638
  C        38.3304464991       31.9604950077       10.1607403901
  C        37.6141738057       30.8875662265       10.9108132574
  C        36.6821000870       31.1972459466       11.9135042079
  C        36.0725528205       30.1804961754       12.6468692372
  C        36.3797471767       28.8267300761       12.4023258877
  C        37.2928215350       28.5270496787       11.3723832828
  C        37.9041899917       29.5402750735       10.6400885921
  C        35.7655921344       27.7277993883       13.1844930605
  C        35.7620088403       27.7222726087       14.6071979255
  C        36.4479379273       28.7140459789       15.3764139494
  C        46.1353509091       26.6207305029       15.2814013504
  C        46.0875579152       26.5800580078       12.4735108095
  C        22.4601806126        3.2558212560       10.2580321107
  C        23.1525276923        4.3646676882       10.9820523871
  C        24.1541278259        4.0790705676       11.9235258910
  C        24.7805046389        5.1094369411       12.6205354828
  C        24.4254381479        6.4551172039       12.3987001834
  C        23.4468470598        6.7339517988       11.4257703422
  C        22.8158219749        5.7038584174       10.7292417475
  C        25.0552619449        7.5535890123       13.1730703766
  C        25.0504078013        7.5467599793       14.5959651288
  C        24.3597957289        6.5484789235       15.3531668900
  C        26.5607113922       17.8147986248        21.782304286038
  C        25.2638282742       17.8634081629        21.047555138238
  C        24.9947506769       18.8871195843        20.125745977838
  C        23.7872702759       18.9078312137        19.431716398038
  C        22.8147175335       17.9105546226        19.642888315038
  C        23.0788957213       16.9083869095        20.594709123638
  C        24.2889702403       16.8811169420        21.284686249638
  C        21.5468399456       17.9035149418        18.873637076738
  C        21.5559812857       17.8986023027        17.452262786938
  C        22.7668251932       17.7848234461        16.698927042138
  C        34.4337126827       17.1938922482        21.906955882038
  C        35.7264203753       17.1425080758        21.164049853538
  C        35.9300523061       16.1734006083        20.168640149538
  C        37.1105480918       16.1587350713        19.431293137038
  C        38.1208701664       17.1113111608        19.668634717138
  C        37.9200995035       18.0604152184        20.689210033238
  C        36.7365413925       18.0811424667        21.423863448438
  C        39.3742907718       17.1169612276        18.879951395138
  C        39.3668648260       17.1204641309        17.457781185438
  C        38.1584438822       17.2388917587        16.701568713338
  C        20.3133586841       17.9233323627        16.738709149538
  C        20.3212404446       17.8995054491        19.551748846838
  C        34.4406484941       17.2352194442       10.1867809304
  C        35.7405881957       17.1381031728       10.9106520407
  C        35.9428150374       16.1614521525       11.8973356234
  C        37.1332552756       16.1300074515       12.6196087849
  C        38.1501666466       17.0742087004       12.3760767240
  C        37.9534131976       18.0239142356       11.3558946635
  C        36.7625904709       18.0604771532       10.6365532216
  C        39.3999804444       17.0895056708       13.1689014166
  C        39.3801118311       17.1068786237       14.5904990891
  C        38.1645848312       17.2307682583       15.3349327854
  C        35.1255658085       26.6432959768       15.3071551487
  C        35.1806113251       26.6560709279       12.4973591990
  C        26.5727951920       17.8271011848       10.3259827965
  C        25.2585783753       17.8762252663       11.0300084096
  C        24.9933170426       18.8854831088       11.9679273600
  C        23.7751098714       18.9127111500       12.6406298522
  C        22.7936184744       17.9316346955       12.3967439181
  C        23.0531059324       16.9474769820       11.4259833628
  C        24.2722947049       16.9172961614       10.7524766713
  C        21.5279776326       17.9158095016       13.1651349100
  C        21.5460144524       17.9025491131       14.5861935810
  C        22.7614736429       17.7857894662       15.3327765575
  C        14.0460191692       17.8316482679       10.2842104303
  C        15.3533504972       17.8952360685       11.0012683497
  C        15.6134661437       18.9069452632       11.9383616530
  C        16.8245752187       18.9318180035       12.6265771548
  C        17.8071079759       17.9476574417       12.3984569946
  C        17.5530035044       16.9616141970       11.4270298963
  C        16.3414168812       16.9323530622       10.7403620603
  C        19.0733527836       17.9288998697       13.1695743665
  C        19.0646244274       17.9198933085       14.5912459131
  C        17.8530078338       17.8205662060       15.3452088196
  C        46.8022266428       17.2164626114       10.1575004441
  C        45.5090540422       17.1467792245       10.8987378459
  C        45.3037049830       16.1628175588       11.8785391986
  C        44.1198813919       16.1352203369       12.6113008942
  C        43.1099469429       17.0914125192       12.3873433494
  C        43.3120370559       18.0543443595       11.3798831656
  C        44.4967520488       18.0858164537       10.6477914605
  C        41.8564164693       17.0955208207       13.1773921455
  C        41.8646152205       17.0987244883       14.5997657744
  C        43.0747902672       17.1965706082       15.3562005107
  C        20.3077500012       17.9247044038       15.3048329814
  C        20.2996384722       17.9086108488       12.4925020344
  C        46.7846342372       17.2321054655        21.876588897138
  C        45.4825692445       17.1274137537        21.157654983638
  C        45.2634975265       16.1267315165        20.198534812438
  C        44.0758834432       16.0986148796        19.471282927638
  C        43.0769415152       17.0684732592        19.684945002138
  C        43.2870729132       18.0400819081        20.681475373838
  C        44.4755593238       18.0741986385        21.404321433238
  C        41.8291549482       17.0871953332        18.889206267938
  C        41.8508348523       17.0931202579        17.467729388838
  C        43.0683888461       17.1907758034        16.723051299538
  C        46.1531115510       26.6371505449        16.715945510338
  C        46.1619870985       26.6559851239        19.525587661138
  C        14.0394086830       17.8264588727        21.695410285538
  C        15.3533073211       17.8902437757        20.994044148938
  C        15.6276538724       18.9102498045        20.071309077338
  C        16.8521608148       18.9416758986        19.408991046038
  C        17.8266166621       17.9518848843        19.645319333138
  C        17.5578222456       16.9575590373        20.602816565238
  C        16.3355931290       16.9258818032        21.268879645538
  C        19.0931743924       17.9281624299        18.878673948638
  C        19.0750964573       17.9187158077        17.457647708738
  C        17.8580492475       17.8198645950        16.711258333038
  C        28.8067156774       14.0884934100       10.3935890878
  C        28.1917449322       12.9167382439       11.0796126916
  C        28.9090669722       12.1840923101       12.0369991761
  C        28.3080036911       11.1104940067       12.6886231989
  C        26.9753587658       10.7461400607       12.4080091717
  C        26.2806061576       11.4588137286       11.4141744132
  C        26.8793714355       12.5324990322       10.7603581830
  C        26.3049828185        9.6678011148       13.1693636641
  C        26.2931500328        9.6945926788       14.5905431111
  C        26.7926715870       10.8093123179       15.3361248876
  C        32.1788451608       21.2373772966       10.1494727825
  C        32.7730343852       22.4049055559       10.8668146521
  C        32.0250672194       23.0851551243       11.8404318248
  C        32.5961082809       24.1238579828       12.5696390226
  C        33.9317442999       24.5121257880       12.3476084677
  C        34.6619299005       23.8516904044       11.3411408406
  C        34.0932764811       22.8073780063       10.6136687523
  C        34.5594773954       25.5863833095       13.1522094432
  C        34.5407608520       25.5585275122       14.5744703122
  C        34.0283620566       24.4431481026       15.3098744411
  C        25.6878733683        8.6146403374       15.3097969877
  C        25.6689730329        8.6163345081       12.4964439485
  C        32.0833043048       21.2009529032        21.876879216438
  C        32.6530921292       22.3638513923        21.134218185538
  C        31.9200216800       23.0079840438        20.125480765238
  C        32.4940199833       24.0450207174        19.391762498838
  C        33.8136737670       24.4687441262        19.647189756538
  C        34.5267693228       23.8383921507        20.685522910538
  C        33.9591368519       22.7969460728        21.414028758638
  C        34.4548120969       25.5530053982        18.865439463538
  C        34.4859138445       25.5420235962        17.442931009638
  C        34.0011943774       24.4356060300        16.676519889038
  C        40.6119113117       17.0895877259        16.746366508138
  C        40.5994862524       17.1169565256        19.556743675638
  C        28.7440382432       14.0660888480        21.806940647238
  C        28.1382242432       12.9171166029        21.073068650938
  C        28.8675965374       12.2400905055        20.083683217138
  C        28.2891359849       11.1820613541        19.386932066638
  C        26.9653225640       10.7767278044        19.651995236438
  C        26.2542513922       11.4418913720        20.668547765438
  C        26.8311055213       12.4993194157        21.368646720838
  C        26.3226742295        9.6875537767        18.878827105938
  C        26.3039397944        9.7046783682        17.456903194638
  C        26.7957377159       10.8155768407        16.701975773938
  C        18.1354445371        3.1808032609       10.3171325189
  C        17.4060486033        4.2780420726       11.0157991300
  C        16.3901983763        3.9995811919       11.9431225174
  C        15.7423576393        5.0394956124       12.6066287393
  C        16.0943134707        6.3832195885       12.3671170450
  C        17.0838722621        6.6528493467       11.4035764098
  C        17.7330775604        5.6155695946       10.7385218886
  C        15.4698442122        7.4908700936       13.1301371532
  C        15.4852136066        7.4902893042       14.5518508847
  C        16.1868702540        6.4967387646       15.3050118560
  C        42.9457679640       31.8595307965       10.0728197865
  C        43.6461020626       30.7718079187       10.8167626720
  C        44.5918039450       31.0930854373       11.8026747711
  C        45.1974744255       30.0875147927       12.5503349366
  C        44.8708050043       28.7344942064       12.3356067787
  C        43.9447964906       28.4201715183       11.3225621199
  C        43.3360341466       29.4253544389       10.5745296682
  C        45.4883854216       27.6551882625       13.1387893743
  C        45.4926263973       27.6808459898       14.5604806738
  C        44.8055891117       28.6889369723       15.3070885059
  C        14.8561793496        8.5627670725       15.2641796014
  C        14.8743900563        8.5625039523       12.4515121430
  C        42.9463758602       31.9615836729        21.798759764238
  C        43.6914992163       30.8854169275        21.085174342138
  C        44.6563783849       31.1912951595        20.113151753738
  C        45.2778441183       30.1716874016        19.395395734938
  C        44.9537077560       28.8214094732        19.632743920238
  C        44.0198376503       28.5237621975        20.643159158038
  C        43.3916340813       29.5405508749        21.355361099338
  C        45.5627640878       27.7239968816        18.847507357738
  C        45.5331425180       27.7173185674        17.426213728238
  C        44.8268722041       28.7075896106        16.673270941738
  C        35.0997272494       26.6337152614        16.742585318938
  C        35.0615898343       26.6122939874        19.552975608538
  C        18.1485918074        3.2468088664        21.696404426438
  C        17.4298785490        4.3436439811        20.987098440238
  C        16.4145175478        4.0523340969        20.063721343138
  C        15.7661561298        5.0829369728        19.388312777738
  C        16.1209264805        6.4281613265        19.610882019638
  C        17.1124956022        6.7115866873        20.567917944138
  C        17.7602236776        5.6827004281        21.247685502738
  C        15.4903731573        7.5238486605        18.838436635038
  C        15.4962971508        7.5072728632        17.417297543138
  C        16.1931101231        6.5055918354        16.670618531438
  H        10.6725091939       12.4664623191        19.893421529438
  H        11.6946187055       10.5515952767        18.651607794238
  H        15.3907669362       11.1671027375        20.763259179038
  H        14.3503215607       13.0698403639        22.008615187938
  H        13.3759641280       11.6309570692        17.190989868638
  H        50.3224306964       22.7484861422        19.976695889138
  H        49.3191937881       24.6228102854        18.670561837538
  H        45.6417955746       24.1611567462        20.853562702538
  H        46.6627315285       22.2903640151        22.161922590138
  H        47.6294899325       23.5757526528        17.235881615638
  H        14.8717197054        8.5878761281        20.598324447638
  H        50.2868577915       22.7026861441       12.0603179416
  H        49.2687853948       24.5755264826       13.3603392346
  H        45.6102358888       24.1090938443       11.1459259848
  H        46.6523713824       22.2538331761        9.8316823995
  H        47.6074996459       23.5517247577       14.7967829345
  H        40.6344296706       17.0681475097       11.4137343420
  H        48.6869634768       14.0949644194        23.789795098138
  H        10.6812002409       12.4670854430       12.0939956969
  H        11.6892350638       10.5250771417       13.2976721924
  H        15.3923878666       11.1571121027       11.2042181897
  H        14.3640733041       13.0856211267        9.9889058394
  H        13.3754648740       11.6218123323       14.7530520565
  H        47.9301302470       14.2178617030        9.7108861027
  H        47.7798544150       14.3730857779        22.484947086438
  H        49.0822374953       18.5519853948       10.8670592571
  H        10.4156576945       14.1343007212        7.9988354907
  H        24.4855094373        3.0252613510        19.909658452838
  H        25.6304415853        4.8829105251        18.684782740638
  H        23.2604278124        7.7530557936        20.839475664138
  H        22.1334318908        5.8856752556        22.065850430138
  H        23.8169753839        5.7888900177        17.261027033238
  H        36.3573375936       32.1887282432        19.974552686138
  H        35.2127936955       30.3686907992        18.708506473838
  H        37.4739850273       27.4367434274        20.897401595138
  H        38.5985670341       29.2698010304        22.173207039038
  H        36.9875732677       29.4533728070        17.292674361938
  H        25.7559002906        8.6019415347        20.643839360938
  H        36.4544474897       32.2415875225       12.1150353916
  H        35.3433458398       30.4283955595       13.4150502497
  H        37.5443497456       27.4867868984       11.1765047553
  H        38.6296628883       29.3116521519        9.8631194231
  H        37.0252144952       29.4727399922       14.8557234819
  H        46.1088807716       26.5874285367       11.3854731511
  H        44.6683595681       35.1161776846        23.803644932138
  H        24.4326373170        3.0410138909       12.0904622884
  H        25.5610913369        4.8809698694       13.3430625595
  H        23.1611460521        7.7683027305       11.2455155395
  H        22.0445156922        5.9163331233        9.9925397791
  H        23.7883280688        5.7923167531       14.8227329646
  H        44.9539394729       34.3905293415        9.6952999636
  H        44.9018779460       34.2067640558        22.480440216138
  H        40.6661078015       33.2090610429       10.8532257745
  H        23.1504640116        1.9577738672        8.0055721702
  H        25.7370867890       19.6669319591        19.971278880838
  H        23.5803384697       19.7057798391        18.721783827038
  H        22.3371292977       16.1302662458        20.762663921638
  H        24.5076284341       16.0955795401        22.004259137638
  H        23.7050660016       17.6647296281        17.233055175238
  H        35.1474985282       15.4421699499        19.980448677038
  H        37.2658372264       15.3994929861        18.667898220338
  H        38.6912634483       18.8046525217        20.877123070138
  H        36.5661705590       18.8293876941        22.194542625838
  H        37.2202361574       17.3691578597        17.233275152238
  H        20.3233738040       17.9267660213        20.639944327238
  H        35.1492772034       15.4451008700       12.0973155336
  H        37.2874353008       15.3695221757       13.3819827260
  H        38.7310343431       18.7597681635       11.1619441646
  H        36.5913608005       18.8127382319        9.8704261653
  H        37.2308947144       17.3540378831       14.7937474937
  H        35.1617052088       26.6817308805       11.4094464332
  H        28.5099867753       21.0932763467        8.0010605081
  H        25.7535813549       19.6416130478       12.1501334244
  H        23.5678752738       19.6988653121       13.3634679578
  H        22.3024429391       16.1838032066       11.2330364587
  H        24.4896405898       16.1460571555       10.0174133140
  H        23.6957245487       17.6662122326       14.7923614493
  H        29.0241130066       21.7104350383        9.7558749384
  H        29.1187780745       21.7561342556        22.588849580138
  H        32.0783798890       18.5358570125       10.9991161118
  H        27.3991186211       19.0857681869        8.0943635658
  H        14.8556276326       19.6674524648       12.1126577368
  H        17.0240610076       19.7204742617       13.3489056893
  H        18.3030066143       16.1950414428       11.2432687888
  H        16.1308547808       16.1580760664       10.0065104603
  H        16.9129877195       17.7123045237       14.8120913025
  H        46.0892928386       15.4330300145       12.0597690304
  H        43.9631609354       15.3645895959       13.3629147234
  H        42.5410244790       18.8010372817       11.2013843894
  H        44.6675755122       18.8442291382        9.8872707471
  H        44.0156193696       17.3080382132       14.8248259032
  H        20.2983757054       17.9404929066       11.4044289796
  H        46.0393602269       15.3845671292        20.024795594038
  H        43.9093027732       15.3210280129        18.728971625638
  H        42.5216618495       18.7940006510        20.853357790738
  H        44.6576990314       18.8430446108        22.151189053638
  H        44.0044143315       17.2966755783        17.263812830338
  H        46.1987094714       26.6825085548        20.613037221638
  H        52.7410834902       21.0625921197        8.1946346698
  H        14.8722172265       19.6720120250        19.891842393638
  H        17.0676878563       19.7359286176        18.697536588738
  H        18.3030694442       16.1870732005        20.789323880238
  H        16.1103854807       16.1478503847        21.994184137838
  H        16.9218318644       17.7109892848        17.250567193638
  H        52.3221141124       21.6734173274        22.284461517538
  H        52.0132811318       21.7023222297        9.4955328971
  H        49.0673171386       18.6079617736        21.194150759738
  H        13.2469455172       19.0164259224        23.965581949438
  H        29.9348587055       12.4711421433       12.2570033100
  H        28.8658002216       10.5412211342       13.4290055988
  H        25.2512153543       11.1870238890       11.1896852394
  H        26.3401136050       13.1041312022       10.0090611351
  H        27.1482992468       11.6814447886       14.7959656741
  H        30.9994583800       22.7737602005       12.0226423307
  H        32.0099810988       24.6484568454       13.3210025464
  H        35.6955867284       24.1408644035       11.1624156342
  H        34.6646476896       22.2727396027        9.8583081798
  H        33.6807781868       23.5718548441       14.7620946093
  H        25.6987395236        8.5965000785       11.4084413974
  H        30.9053913045       22.6736332702        19.919592605038
  H        31.9183205413       24.5433875969        18.614846762738
  H        35.5480029344       24.1526416353        20.890812175438
  H        34.5180525987       22.2890386017        22.196399213338
  H        33.6330345578       23.5580913630        17.200607397938
  H        40.5949211389       17.0859022619        20.644644697738
  H        32.5052741803       14.1473251121        8.2474380133
  H        29.8868358041       12.5586807511        19.876961131338
  H        28.8626244493       10.6526965351        18.629146648838
  H        25.2300949055       11.1416315897        20.880307741338
  H        26.2782415426       13.0286897403        22.141002248938
  H        27.1522634522       11.6928106884        17.233976300138
  H        33.3045069712       14.2295098639        22.451131249938
  H        33.4067874197       14.4018149148        9.5985435886
  H        32.0979055659       18.4943158339        21.157767040938
  H        30.1894328208       14.1588696972        8.0725557919
  H        16.1181426086        2.9630469859       12.1293711982
  H        14.9527922967        4.8200380344       13.3221398019
  H        17.3663782792        7.6857394207       11.2106580898
  H        18.5152561889        5.8182500233       10.0108312797
  H        16.7534508134        5.7394251618       14.7714950826
  H        44.8282449503       32.1401499902       11.9767494344
  H        45.9374761315       30.3412193801       13.3061633689
  H        43.6818950678       27.3781304151       11.1525885757
  H        42.5992916634       29.1900717999        9.8099674410
  H        44.2302673732       29.4367154094       14.7687630507
  H        14.8505321570        8.5455924778       11.3632960405
  H        44.9002133914       32.2339563798        19.921961519338
  H        46.0249684766       30.4128902551        18.642365517638
  H        43.7625010282       27.4840654237        20.834399754938
  H        42.6448424324       29.3177842554        22.113528445038
  H        44.2684127275       29.4705060683        17.207865714638
  H        35.0115347443       26.6254494803        20.640151886638
  H        36.6053244603       35.1339217748        8.1807808189
  H        16.1433680634        3.0127471636        19.894152091238
  H        14.9737160891        4.8560557444        18.678365201138
  H        17.3961421510        7.7470467773        20.744619263738
  H        18.5432775323        5.8931476205        21.972257347438
  H        16.7645780588        5.7553975210        17.209089091938
  H        36.2789228192       34.4820543728        22.263125005638
  H        36.3812329369       34.2088668209        9.4996363456
  H        40.5788266298       33.2015290673        21.143869717538
  H        17.4710151261        1.9468645119        23.963901511238
  H        29.1623114554       19.2922535758       12.6106045499
  H        28.4409136277       19.0045797540        19.936887193538
  H        31.9132947405       15.8285508812        19.577433469238
  H        31.3371891231       15.5558787965       12.4878095796
  H        28.1558172121       17.7262545153       14.5018675972
  H        29.4492066998       15.4047888797       14.5077354365
  H        32.9548753369       16.7616077162        17.276495128538
  H        18.8548400467        0.8691478451       12.3354977916
  H        40.5280959873       35.2289372872        19.941904194938
  H        42.3235922110       34.4184263501        19.580409381938
  H        22.0880677442        0.6924912799       12.3511469274
  H        11.5970027764       18.7129119650       12.3825288029
  H        52.2646411811       18.4313235283        19.667137997338
  H        49.2551166911       16.4765883116        19.574137124738
  H        10.1509216604       15.7981361658       12.2923487910
  H        50.8498056538       17.6925337190        19.943916144138
  H        10.0463356850       17.3945844875       12.0519717643
  H        20.2166862337        0.0026089915       12.0417128889
  H        39.1837223786       36.1243957239        19.676219252038
 Ni        30.6914659799       17.3731367944        18.564585668738
 Ni        31.1526168816       16.1396148017       15.988805749438
 Ni        29.8910399516       18.0810745696        16.163534806938
 Ni        30.1384739767       17.3048378338       13.2392320579
  O        10.6498139604       14.3651331149        21.475571578338