     569
 i =      205, E =     -4729.5342185543
  C        11.8585652069       14.0534343277        21.731373428138
  C        12.4559703688       12.8904011222        21.013167245338
  C        11.7044364960       12.1718261962        20.071110076738
  C        12.2807925991       11.1096251384        19.378733540338
  C        13.6212161684       10.7394555984        19.606806826538
  C        14.3541774282       11.4426243864        20.580734278638
  C        13.7812996275       12.5075743971        21.272279153238
  C        14.2607736334        9.6488256710        18.833389773038
  C        14.2561402236        9.6567906257        17.411685767138
  C        13.7430580827       10.7589384837        16.657758680238
  C        49.1264767296       21.2333812072        21.869568848438
  C        48.5496433072       22.4012013181        21.142498753938
  C        49.2996835649       23.0685121632        20.161483597638
  C        48.7327405894       24.1075812956        19.428223016938
  C        47.4021782552       24.5092114194        19.656791660238
  C        46.6712020413       23.8603255135        20.670293128938
  C        47.2336578145       22.8154698077        21.399715240038
  C        46.7719938952       25.5869021854        18.859469811338
  C        46.7611732436       25.5573415202        17.437704892338
  C        47.2611789182       24.4422833686        16.694206834638
  C        14.8600873491        8.5704575496        16.698418911038
  C        14.8914935663        8.5968244098        19.510028700938
  C        49.1130087403       21.2035001852       10.1453085209
  C        48.5276579555       22.3648513204       10.8723447264
  C        49.2668970486       23.0255869927       11.8652552931
  C        48.6905647691       24.0601211526       12.5967148508
  C        47.3601411715       24.4568874305       12.3584850362
  C        46.6397429549       23.8120071250       11.3349249592
  C        47.2132910960       22.7761091709       10.6031293103
  C        46.7216900537       25.5318088236       13.1495506621
  C        46.7334986542       25.5281832330       14.5712551361
  C        47.2489715483       24.4289959311       15.3276516312
  C        40.6158898395       17.0595276486       15.3166702493
  C        40.6293391964       17.0933926131       12.5066338699
  C        11.8828049780       14.0863998775       10.2854787406
  C        12.4719551034       12.9104271881       10.9895531316
  C        11.7145951484       12.1776706885       11.9161536996
  C        12.2811137000       11.0951836292       12.5845812772
  C        13.6197237450       10.7209469520       12.3523046859
  C        14.3574543800       11.4359702032       11.3908956029
  C        13.7921045493       12.5171641892       10.7181928657
  C        14.2533725789        9.6242860373       13.1227810265
  C        14.2522265264        9.6443779625       14.5446257769
  C        13.7424647645       10.7533748734       15.2917111631
  C        22.5113237708        3.2436243832        21.743346826938
  C        23.2257980843        4.3484698666        21.043943701738
  C        24.2208844550        4.0676487628        20.096135048938
  C        24.8475515364        5.1069604786        19.413727180838
  C        24.4944591868        6.4485614774        19.659591699738
  C        23.5278475126        6.7209147887        20.644597898638
  C        22.8964346892        5.6834371016        21.325266956938
  C        25.0987758839        7.5550281740        18.883732155038
  C        25.0665223805        7.5497625625        17.462516730838
  C        24.3622607169        6.5514367435        16.717128407038
  C        38.2975048962       31.9274037678        21.841954917038
  C        37.5549876020       30.8387211016        21.141723870638
  C        36.5896265649       31.1457242737        20.170174190338
  C        35.9584151533       30.1279493591        19.460064830338
  C        36.2768165926       28.7762698766        19.697670392538
  C        37.2111007210       28.4767754854        20.707373619238
  C        37.8463657205       29.4935403299        21.416978703138
  C        35.6666104097       27.6882231676        18.898063816138
  C        35.7084699840       27.7030343448        17.476273629338
  C        36.4223240290       28.7035833594        16.743832188238
  C        25.6874043009        8.6206157549        16.742563462738
  C        25.6991431650        8.6278730821        19.554346121638
  C        38.3304955780       31.9602505415       10.1609092513
  C        37.6146521166       30.8871893593       10.9111621884
  C        36.6822818484       31.1966238610       11.9136749942
  C        36.0728635627       30.1797692839       12.6469791265
  C        36.3803430447       28.8259661507       12.4027630203
  C        37.2938222201       28.5264902430       11.3730569284
  C        37.9050538250       29.5398580315       10.6407663119
  C        35.7650010595       27.7274901142       13.1847414895
  C        35.7584207018       27.7233750180       14.6075388321
  C        36.4446195902       28.7144689682       15.3773980811
  C        46.1354616537       26.6208050777       15.2813883812
  C        46.0876275761       26.5801000124       12.4734969841
  C        22.4596857574        3.2553967808       10.2576317424
  C        23.1515320980        4.3644523621       10.9814123170
  C        24.1518316284        4.0791053028       11.9242191641
  C        24.7775002227        5.1099103567       12.6210419289
  C        24.4229269964        6.4552752692       12.3970865060
  C        23.4456875672        6.7338815463       11.4229030965
  C        22.8151879004        5.7033195544       10.7267838062
  C        25.0518745314        7.5538996538       13.1713934049
  C        25.0428894481        7.5487176613       14.5940782740
  C        24.3490650363        6.5520305503       15.3505036677
  C        26.5655762441       17.8254895574        21.777989684138
  C        25.2645832746       17.8880518523        21.049627961438
  C        25.0103265542       18.9026447432        20.113936861138
  C        23.8013052868       18.9331577291        19.422570623338
  C        22.8142798634       17.9529449889        19.647613422938
  C        23.0638452404       16.9617735571        20.614866824438
  C        24.2742121211       16.9259711967        21.303726092038
  C        21.5476274751       17.9466340859        18.876935063838
  C        21.5561893076       17.9371288423        17.455290315838
  C        22.7667540833       17.8226084375        16.701709121838
  C        34.4404594717       17.1881666369        21.941630401938
  C        35.7288787355       17.1297110569        21.188448685238
  C        35.9371957103       16.1399440840        20.215064444538
  C        37.1127674864       16.1205508714        19.468546731138
  C        38.1153275755       17.0877532009        19.677064358338
  C        37.9099475833       18.0590615941        20.675652562338
  C        36.7306814059       18.0852000531        21.417386148438
  C        39.3683782392       17.0871733758        18.885599917138
  C        39.3617582428       17.0822142450        17.463391992238
  C        38.1525547564       17.1853417423        16.706299573138
  C        20.3133696005       17.9563598107        16.741456489338
  C        20.3214913380       17.9404952604        19.554294715038
  C        34.4372613916       17.2369777010       10.1883302157
  C        35.7378677766       17.1358817915       10.9135795204
  C        35.9480778709       16.1414808888       11.8806646174
  C        37.1388136523       16.1037475161       12.6025374881
  C        38.1485355311       17.0603851789       12.3790220122
  C        37.9442553190       18.0290989938       11.3784761040
  C        36.7534681470       18.0706599898       10.6586580421
  C        39.3983541674       17.0698856032       13.1730245038
  C        39.3772102309       17.0745062358       14.5948269949
  C        38.1599141406       17.1806288036       15.3394732664
  C        35.1186162782       26.6462541452       15.3073061147
  C        35.1809896818       26.6552194958       12.4974187438
  C        26.5729442170       17.8270176677       10.3284626822
  C        25.2593451193       17.8796023926       11.0347582564
  C        24.9945254142       18.8955791087       11.9655682847
  C        23.7758603055       18.9283218368       12.6375511190
  C        22.7939928293       17.9459721907       12.4001619570
  C        23.0537716718       16.9542713679       11.4372858732
  C        24.2730753992       16.9188782932       10.7642829909
  C        21.5278104621       17.9350160783       13.1675896228
  C        21.5456057903       17.9297456524       14.5886018798
  C        22.7611713425       17.8186721036       15.3356666508
  C        14.0463483607       17.8320612090       10.2842447079
  C        15.3535695609       17.8975059055       11.0014774628
  C        15.6115220284       18.9105140888       11.9378609130
  C        16.8222196517       18.9384253281       12.6265311203
  C        17.8070187183       17.9561025580       12.4000177699
  C        17.5550435632       16.9686372394       11.4293495327
  C        16.3437708915       16.9363751333       10.7419624052
  C        19.0732201784       17.9425522311       13.1714762058
  C        19.0644762090       17.9401411876       14.5934003814
  C        17.8533469659       17.8394858523       15.3479112956
  C        46.8016402522       17.2167765570       10.1586455569
  C        45.5089450370       17.1466080996       10.9020818156
  C        45.3054503150       16.1619209473       11.8817453669
  C        44.1221533310       16.1316284013       12.6155310935
  C        43.1097264347       17.0858152820       12.3934168115
  C        43.3104406902       18.0502712761       11.3869231797
  C        44.4947266803       18.0843891368       10.6536885251
  C        41.8552805355       17.0842891509       13.1830778834
  C        41.8619431136       17.0805449867       14.6057107349
  C        43.0710373418       17.1818601424       15.3634655519
  C        20.3074736377       17.9521411530       15.3073529964
  C        20.2996855276       17.9216647389       12.4946819410
  C        46.7836313986       17.2310832795        21.877518810438
  C        45.4803245381       17.1225867385        21.160672133038
  C        45.2624119865       16.1195243768        20.203692291138
  C        44.0738688977       16.0866780216        19.478120596238
  C        43.0721247658       17.0538250191        19.691358839238
  C        43.2810411504       18.0276883241        20.686010854538
  C        44.4707230910       18.0666949430        21.407034636638
  C        41.8238752311       17.0668879191        18.895680102338
  C        41.8459935179       17.0700769499        17.474153928338
  C        43.0635752825       17.1738788226        16.730217948038
  C        46.1531887301       26.6372221876        16.715934476038
  C        46.1619752317       26.6560013563        19.525574616438
  C        14.0400893416       17.8293343145        21.696897938738
  C        15.3547068676       17.9010901920        20.998119465938
  C        15.6207359890       18.9201227460        20.071776491038
  C        16.8447141018       18.9593504866        19.409191257338
  C        17.8272856027       17.9784748114        19.648886330038
  C        17.5671962459       16.9862007810        20.611143272538
  C        16.3452739783       16.9466338620        21.277434476838
  C        19.0933650728       17.9615763793        18.881478673138
  C        19.0750371642       17.9490086173        17.460355186138
  C        17.8585827548       17.8431111084        16.714028570638
  C        28.8083671891       14.0883062052       10.3988080964
  C        28.1948214963       12.9149445831       11.0839179358
  C        28.9138807341       12.1757876886       12.0347773613
  C        28.3116381200       11.1018639989       12.6850483481
  C        26.9765910637       10.7436348099       12.4083936105
  C        26.2801428195       11.4622740153       11.4203314597
  C        26.8799031277       12.5364292500       10.7685509223
  C        26.3042846337        9.6659435595       13.1686757940
  C        26.2891021648        9.6943701934       14.5894802171
  C        26.7898196577       10.8087406077       15.3348769961
  C        32.1784531625       21.2374084008       10.1476180726
  C        32.7751660562       22.4013501461       10.8694995100
  C        32.0229158555       23.0884549681       11.8349251413
  C        32.5925038552       24.1286176235       12.5632817890
  C        33.9309918684       24.5111576490       12.3485416077
  C        34.6662131029       23.8428498773       11.3511696585
  C        34.0987179501       22.7973108169       10.6243225750
  C        34.5567994277       25.5873424760       13.1522092454
  C        34.5332793333       25.5620858662       14.5742825957
  C        34.0150842224       24.4492444294       15.3093155118
  C        25.6798632874        8.6164662314       15.3082328356
  C        25.6686332707        8.6149453087       12.4950379648
  C        32.0724923229       21.1940128152        21.866242829938
  C        32.6402862039       22.3592877898        21.123538357338
  C        31.9080571193       23.0041896165        20.114865731138
  C        32.4798587305       24.0464325844        19.386434297238
  C        33.7979454452       24.4731732778        19.645049307938
  C        34.5105741122       23.8415481463        20.682865950638
  C        33.9440408354       22.7968808743        21.407668450338
  C        34.4400533850       25.5584116425        18.865136157338
  C        34.4723536596       25.5478181163        17.442619022838
  C        33.9848676942       24.4428988044        16.675764434638
  C        40.6074746125       17.0589515784        16.752032952938
  C        40.5935812749       17.0952309864        19.562525288938
  C        28.7429212969       14.0643676078        21.806044716238
  C        28.1314940954       12.9189795320        21.068163846938
  C        28.8641939247       12.2272607441        20.091838867338
  C        28.2823248500       11.1712022481        19.394680428338
  C        26.9519837785       10.7811182809        19.648858821038
  C        26.2366013283       11.4606014939        20.652370622738
  C        26.8168723822       12.5171782488        21.351227377938
  C        26.3081184560        9.6918986488        18.876768297138
  C        26.2924830886        9.7074654750        17.455169558738
  C        26.7893035406       10.8164006774        16.700664743338
  C        18.1353841960        3.1808147944       10.3171727186
  C        17.4060124811        4.2780659971       11.0158433259
  C        16.3901958835        3.9996600187       11.9432233646
  C        15.7423981811        5.0396153307       12.6067116731
  C        16.0943462878        6.3833308703       12.3671228654
  C        17.0838465072        6.6529061625       11.4035056980
  C        17.7330054273        5.6155883304       10.7384710847
  C        15.4699405284        7.4910137891       13.1301400138
  C        15.4852809774        7.4904128482       14.5518515774
  C        16.1868666994        6.4968192295       15.3050184485
  C        42.9457373106       31.8594802391       10.0728025229
  C        43.6460687697       30.7717733414       10.8167599543
  C        44.5917467753       31.0930847804       11.8026845440
  C        45.1974394759       30.0875270650       12.5503342482
  C        44.8708231338       28.7344965919       12.3355926098
  C        43.9448225340       28.4201583058       11.3225476845
  C        43.3360223615       29.4253179826       10.5745137352
  C        45.4884458283       27.6552223786       13.1387764958
  C        45.4926973239       27.6808936470       14.5604662041
  C        44.8056317993       28.6889721278       15.3070672139
  C        14.8562957845        8.5629102428       15.2641926622
  C        14.8745563958        8.5626986982       12.4515257189
  C        42.9463505381       31.9615333130        21.798767901938
  C        43.6914837240       30.8853760202        21.085216617238
  C        44.6563411611       31.1912843605        20.113182445638
  C        45.2778089567       30.1717055543        19.395396642938
  C        44.9537025379       28.8214196922        19.632746713738
  C        44.0198643530       28.5237370957        20.643183611938
  C        43.3916589159       29.5405051175        21.355414950438
  C        45.5627712743       27.7240271589        18.847495709238
  C        45.5331848484       27.7173735385        17.426202151538
  C        44.8268958398       28.7076255396        16.673249769538
  C        35.0902080428       26.6375684272        16.742763390538
  C        35.0494289893       26.6161099149        19.553128499038
  C        18.1485088779        3.2468011904        21.696381531438
  C        17.4298451616        4.3436488762        20.987041269138
  C        16.4145030578        4.0523705010        20.063634522238
  C        15.7661528129        5.0830011367        19.388252231438
  C        16.1209109539        6.4282215271        19.610869157338
  C        17.1124607255        6.7116167168        20.567936314638
  C        17.7601662266        5.6827053766        21.247680483538
  C        15.4903887580        7.5239326614        18.838440340038
  C        15.4963231243        7.5073619893        17.417305953338
  C        16.1930914275        6.5056544633        16.670621928538
  H        10.6724264935       12.4662146848        19.893809660738
  H        11.6945928133       10.5514013885        18.651922263738
  H        15.3910597234       11.1676940386        20.762803557638
  H        14.3506042568       13.0704381481        22.008107276638
  H        13.3760955577       11.6311008366        17.191039779938
  H        50.3224070964       22.7485131245        19.976781141638
  H        49.3192086792       24.6228173867        18.670614684338
  H        45.6416745947       24.1610306697        20.853385456338
  H        46.6625923447       22.2902504244        22.161788264338
  H        47.6296689115       23.5758832185        17.235887609838
  H        14.8717617171        8.5879918420        20.598333687238
  H        50.2869415056       22.7027490112       12.0601743099
  H        49.2689457839       24.5756210045       13.3601942089
  H        45.6103527116       24.1092764088       11.1458166176
  H        46.6524246811       22.2539721167        9.8315764876
  H        47.6077559920       23.5518593217       14.7967870380
  H        40.6337069877       17.0669758117       11.4185805830
  H        48.6870346261       14.0950000763        23.789783748238
  H        10.6812806296       12.4670872006       12.0939230747
  H        11.6894167017       10.5251149763       13.2976186064
  H        15.3926873885       11.1576384349       11.2045250758
  H        14.3642981541       13.0861171282        9.9892253166
  H        13.3756569218       11.6220004415       14.7530813586
  H        47.9300543419       14.2182303257        9.7108151709
  H        47.7798981649       14.3735248557        22.485076705038
  H        49.0823126153       18.5519793807       10.8671003820
  H        10.4157047995       14.1343560334        7.9987169407
  H        24.4804464291        3.0288484826        19.904654884838
  H        25.6192906158        4.8897870513        18.678428212138
  H        23.2485953103        7.7541318924        20.840203625738
  H        22.1275866221        5.8835009853        22.067518800838
  H        23.8016420758        5.7946108431        17.258008294638
  H        36.3588077492       32.1899146884        19.972874049138
  H        35.2111046400       30.3715088670        18.708021916938
  H        37.4652102119       27.4364605494        20.899987213238
  H        38.5932064120       29.2679427962        22.174606065338
  H        36.9835936356       29.4531819648        17.293970611938
  H        25.7385637103        8.6084046192        20.641955032138
  H        36.4541462030       32.2408864263       12.1150541472
  H        35.3432573729       30.4275448876       13.4148081334
  H        37.5456099739       27.4863077816       11.1770517727
  H        38.6306467065       29.3112640879        9.8638898508
  H        37.0238677718       29.4720673825       14.8573047003
  H        46.1089206894       26.5874565951       11.3854583773
  H        44.6682090679       35.1161292049        23.803785116438
  H        24.4296321290        3.0410535199       12.0923319395
  H        25.5569041933        4.8821716587       13.3450716751
  H        23.1606472386        7.7682025607       11.2414838368
  H        22.0447071703        5.9150111116        9.9890166323
  H        23.7777319907        5.7962646363       14.8193664964
  H        44.9536981038       34.3903122021        9.6951489531
  H        44.9016975651       34.2067279439        22.480483048938
  H        40.6659491810       33.2087988640       10.8530699068
  H        23.1502785414        1.9576713741        8.0054600085
  H        25.7690440774       19.6636807808        19.945857126738
  H        23.6054445339       19.7247867979        18.702479136738
  H        22.3106683473       16.1973935565        20.794731089938
  H        24.4818391479       16.1482401763        22.034864783338
  H        23.7050050416       17.7051585020        17.236147124338
  H        35.1619411783       15.3949998110        20.052099034438
  H        37.2709533556       15.3454096865        18.721790994838
  H        38.6747149691       18.8151079568        20.841405040338
  H        36.5570274711       18.8500978475        22.170849164838
  H        37.2126677375       17.3014228267        17.238441308038
  H        20.3233491418       17.9707285731        20.642407507738
  H        35.1609124367       15.4138137365       12.0640765212
  H        37.2991997687       15.3285831934       13.3487366327
  H        38.7162728865       18.7746810651       11.1997490089
  H        36.5769669713       18.8361321375        9.9068538379
  H        37.2253364529       17.2932595130       14.7975349922
  H        35.1652129634       26.6790229219       11.4094097966
  H        28.4984255133       21.0760157695        23.876508580438
  H        25.7547765680       19.6536904614       12.1403206932
  H        23.5681339070       19.7202535357       13.3539594620
  H        22.3028377476       16.1894770901       11.2498571755
  H        24.4905273731       16.1428551136       10.0342803373
  H        23.6953446333       17.6982692210       14.7954467035
  H        29.0237664490       21.7114793516        9.7305509873
  H        29.2038212648       21.6914903802        22.548408836338
  H        32.0707706868       18.5533292859       10.9917343803
  H        27.3737386682       19.0258900462        8.0696379819
  H        14.8522669742       19.6698204143       12.1111023355
  H        17.0198544841       19.7283903064       13.3479205261
  H        18.3066263515       16.2034087069       11.2463640189
  H        16.1353349694       16.1610168113       10.0086045596
  H        16.9136044953       17.7258986902       14.8154150999
  H        46.0920847448       15.4329770279       12.0618845327
  H        43.9676984266       15.3596499382       13.3662409384
  H        42.5383566204       18.7960754063       11.2092389365
  H        44.6632170033       18.8439924928        9.8937807475
  H        44.0117404358       17.2989768432       14.8330601706
  H        20.2986891595       17.9477521957       11.4064530813
  H        46.0401348317       15.3793054890        20.030003236638
  H        43.9088029145       15.3073574020        18.737287267338
  H        42.5137686709       18.7797143462        20.857958933738
  H        44.6514844957       18.8374726506        22.152287130738
  H        43.9986810846       17.2838569117        17.271743320538
  H        46.1986463202       26.6825226862        20.613026358638
  H        52.7410850542       21.0626603015        8.1945752132
  H        14.8588618629       19.6747095983        19.889477472338
  H        17.0534820464       19.7526770442        18.694712309338
  H        18.3192341788       16.2231869925        20.801083549738
  H        16.1268534349       16.1697853836        22.006101667138
  H        16.9227008289       17.7320485403        17.253436653438
  H        52.3223641044       21.6735710896        22.284474952938
  H        52.0134838966       21.7024551330        9.4955975365
  H        49.0665007560       18.6078168787        21.194177200138
  H        13.2469506326       19.0168109393        23.965893496138
  H        29.9422936266       12.4575070101       12.2494119923
  H        28.8699403233       10.5271301304       13.4208554204
  H        25.2489637852       11.1946390041       11.1990884702
  H        26.3398871748       13.1129715347       10.0215881099
  H        27.1493387531       11.6786757998       14.7937777122
  H        30.9943262426       22.7823800539       12.0093812476
  H        32.0029352382       24.6594662542       13.3075671715
  H        35.7021334767       24.1275960754       11.1785528005
  H        34.6728473354       22.2575136249        9.8747139313
  H        33.6653714934       23.5791500930       14.7610614180
  H        25.7007743264        8.5942000055       11.4071252245
  H        30.8954394780       22.6668576842        19.904641735738
  H        31.9036028072       24.5459221441        18.610633819438
  H        35.5307336170       24.1575467586        20.890863050638
  H        34.5023409365       22.2892520596        22.190606725338
  H        33.6119119795       23.5675298661        17.199821963738
  H        40.5885855519       17.0707815925        20.650606988038
  H        32.5023503407       14.1429550370        8.2525044784
  H        29.8902964064       12.5316667512        19.898344106138
  H        28.8577928479       10.6299643160        18.646776069138
  H        25.2072777736       11.1719311759        20.855061439338
  H        26.2615565517       13.0580686754        22.113778478638
  H        27.1470337555       11.6922624926        17.234093612638
  H        33.3107356175       14.2488599032        22.467332819438
  H        33.4063301908       14.4131134039        9.5951937726
  H        32.1003331227       18.4556377622        21.145310876238
  H        30.1977542627       14.1441731148        8.0894511238
  H        16.1181141842        2.9631401878       12.1295233657
  H        14.9528657203        4.8201874247       13.3222679663
  H        17.3663200704        7.6857878505       11.2104997553
  H        18.5151146350        5.8182325925       10.0106989484
  H        16.7533892347        5.7394617424       14.7715064287
  H        44.8281340983       32.1401584078       11.9767657251
  H        45.9374226154       30.3412414865       13.3061758147
  H        43.6819519011       27.3781099003       11.1525696638
  H        42.5992750034       29.1900031491        9.8099652017
  H        44.2302741595       29.4367148457       14.7687298344
  H        14.8507032768        8.5458131982       11.3633092939
  H        44.9001232792       32.2339558184        19.921988172038
  H        46.0249096861       30.4129112109        18.642345478038
  H        43.7625342971       27.4840386184        20.834426673838
  H        42.6448612734       29.3177194218        22.113572723438
  H        44.2683809722       29.4705136766        17.207827128438
  H        34.9988655284       26.6290446386        20.640298342038
  H        36.6051916485       35.1339206231        8.1806414767
  H        16.1433545536        3.0127910592        19.894012366238
  H        14.9737325845        4.8561364778        18.678277170138
  H        17.3960917579        7.7470738285        20.744679136238
  H        18.5431874175        5.8931346151        21.972289678238
  H        16.7644861570        5.7554032004        17.209086207138
  H        36.2788680029       34.4820009043        22.263175746738
  H        36.3808534957       34.2089979553        9.4996287855
  H        40.5785237519       33.2013194266        21.143990464638
  H        17.4708509230        1.9470989170        23.963793511738
  H        29.1918873878       19.3715678819       12.5826162129
  H        28.7221730842       18.6213075432        19.807553616538
  H        31.8576749394       15.8353827489        19.568393252938
  H        31.3087652974       15.6201611309       12.5284712827
  H        27.9310827975       17.8287260878       14.2435950215
  H        29.4122176957       15.4666972613       14.5059902500
  H        32.6122158667       17.4578294178        17.457790381838
  H        18.8528375941        0.8687842688       12.3351334188
  H        40.5280576930       35.2289620092        19.941992840438
  H        42.3232923717       34.4181784020        19.580716103538
  H        22.0874745321        0.6921264859       12.3512879815
  H        11.5967816612       18.7128289840       12.3825371539
  H        52.2650588857       18.4308581925        19.667915866638
  H        49.2550052204       16.4767175430        19.574133473338
  H        10.1507859824       15.7981937100       12.2923181249
  H        50.8498949774       17.6927213991        19.943866623438
  H        10.0461735112       17.3946611981       12.0519557826
  H        20.2139944210        0.0020154782       12.0420321555
  H        39.1835792892       36.1242516022        19.676169098738
 Ni        30.6492705375       17.6546707928        18.816338932638
 Ni        31.0752427718       16.4639474551       15.909780506938
 Ni        29.5479184539       18.3335211737        16.079442278438
 Ni        30.0528391851       17.3581800445       13.1595416046
  O        10.6498350603       14.3651635771        21.475577963438