     565
 i =      133, E =     -4696.1633603178
  C        11.8583861678       14.0533463541        21.731326069538
  C        12.4557255115       12.8902676572        21.013164685338
  C        11.7042561497       12.1718976073        20.070892734338
  C        12.2805646156       11.1096579177        19.378538390838
  C        13.6208771019       10.7391859367        19.606818189138
  C        14.3537261890       11.4420839566        20.581045008738
  C        13.7808952350       12.5070538224        21.272596758438
  C        14.2604383470        9.6485996565        18.833353094038
  C        14.2556538848        9.6565187580        17.411644373338
  C        13.7424986014       10.7586169419        16.657693544438
  C        49.1263760856       21.2335038811        21.869604279138
  C        48.5495068736       22.4011944665        21.142496364738
  C        49.2995618673       23.0685854701        20.161532247838
  C        48.7325762983       24.1076053136        19.428260384338
  C        47.4019749567       24.5091409680        19.656790215838
  C        46.6709796604       23.8601760290        20.670223019738
  C        47.2334662316       22.8153479989        21.399648059238
  C        46.7718222595       25.5868314393        18.859477586338
  C        46.7610141076       25.5572501081        17.437722532338
  C        47.2609009838       24.4421273695        16.694243554938
  C        14.8595863210        8.5701906629        16.698347002338
  C        14.8912920321        8.5966455652        19.509960871238
  C        49.1127914954       21.2035346379       10.1453001451
  C        48.5274633584       22.3648192792       10.8723312037
  C        49.2666458463       23.0254707722       11.8653509745
  C        48.6902884892       24.0599637500       12.5968263079
  C        47.3598835666       24.4567792509       12.3585380512
  C        46.6395266167       23.8119409701       11.3349214679
  C        47.2130915675       22.7760735825       10.6031087967
  C        46.7214773856       25.5317147130       13.1495978956
  C        46.7333241859       25.5280787027       14.5712956613
  C        47.2486618356       24.4288264532       15.3276897260
  C        40.6163961847       17.0867044906       15.3192074505
  C        40.6317272963       17.1218950742       12.5089511072
  C        11.8825789404       14.0862532160       10.2854498422
  C        12.4714774571       12.9100711099       10.9893200833
  C        11.7141806939       12.1777956190       11.9163545423
  C        12.2805047174       11.0952076433       12.5847627166
  C        13.6189077294       10.7204205988       12.3521521392
  C        14.3564799541       11.4348191658       11.3901356703
  C        13.7913138020       12.5161027434       10.7174399276
  C        14.2524901434        9.6237929161       13.1226956703
  C        14.2514624369        9.6439766417       14.5445421924
  C        13.7417769240       10.7529936336       15.2916450553
  C        22.5062445146        3.2424281739        21.738657084438
  C        23.2096546229        4.3452521464        21.027050735038
  C        24.2045767014        4.0620904003        20.079901379338
  C        24.8253622288        5.0993842934        19.389658093738
  C        24.4653500808        6.4406011130        19.626710049738
  C        23.4956108725        6.7153048095        20.607990442638
  C        22.8709545911        5.6800073783        21.297398620238
  C        25.0727950587        7.5456750295        18.852883745138
  C        25.0632967111        7.5365233657        17.431841496138
  C        24.3707549704        6.5356904833        16.679517254438
  C        38.3009270199       31.9267953088        21.838117542738
  C        37.5672312872       30.8373436759        21.129282367838
  C        36.6063863245       31.1429614860        20.152793993438
  C        35.9829524358       30.1246314415        19.436234011038
  C        36.3039725291       28.7733653972        19.673141701038
  C        37.2353952624       28.4752750770        20.686017928838
  C        37.8631975436       29.4925031925        21.401487660038
  C        35.6950984545       27.6832789005        18.875252003138
  C        35.7290447350       27.6968275107        17.453224545838
  C        36.4384564432       28.6967800943        16.716031349938
  C        25.6944105896        8.6063423128        16.719116100738
  C        25.6577556942        8.6225914310        19.529839194538
  C        38.3275282555       31.9604141987       10.1569229775
  C        37.6044446890       30.8862841290       10.8983091185
  C        36.6742389460       31.1939658070       11.9032206073
  C        36.0615472517       30.1752532721       12.6309377088
  C        36.3637092780       28.8217977847       12.3785188157
  C        37.2719029000       28.5241921665       11.3437065764
  C        37.8867622008       29.5394624107       10.6171417783
  C        35.7521886161       27.7225504402       13.1619923122
  C        35.7583387672       27.7167357344       14.5846258109
  C        36.4517391422       28.7068634406       15.3493573966
  C        46.1353799805       26.6207535475       15.2814165955
  C        46.0875081587       26.5800529090       12.4735315801
  C        22.4658112370        3.2544839886       10.2524133460
  C        23.1728136672        4.3606788722       10.9645773291
  C        24.1826231331        4.0700010009       11.8956662851
  C        24.8208915597        5.0976214191       12.5853565140
  C        24.4687097319        6.4442005986       12.3662494418
  C        23.4841171493        6.7282675650       11.4014628608
  C        22.8415170729        5.7009602628       10.7116314147
  C        25.1003284308        7.5387380451       13.1437332272
  C        25.0776548720        7.5326228396       14.5656859310
  C        24.3748965032        6.5356369514       15.3133008522
  C        26.5600710162       17.8271456889        21.778381872738
  C        25.2584468263       17.8894900705        21.052100542838
  C        24.9999799703       18.9114372511        20.125956492238
  C        23.7914982270       18.9424876647        19.434183087138
  C        22.8102967835       17.9548262039        19.649745241938
  C        23.0638607410       16.9554165230        20.607090978438
  C        24.2737153428       16.9197125442        21.296873017538
  C        21.5440930025       17.9497020403        18.879060901138
  C        21.5521350173       17.9409366118        17.457627477538
  C        22.7631237458       17.8328846454        16.703300380038
  C        34.4169658126       17.2128444412        21.901964212438
  C        35.7127311109       17.1447029084        21.164417498738
  C        35.9059480235       16.1784784659        20.164930775038
  C        37.0896146301       16.1513840066        19.432078697738
  C        38.1110430809       17.0905897088        19.675714214638
  C        37.9199363448       18.0360539809        20.701788794538
  C        36.7349852248       18.0673950527        21.433674931138
  C        39.3652248303       17.0932412905        18.887101927438
  C        39.3602762980       17.1043090009        17.464522918638
  C        38.1527359719       17.2235766123        16.706908099138
  C        20.3085204548       17.9550224972        16.745190541238
  C        20.3189180421       17.9425792906        19.557545331338
  C        34.4430136525       17.2451429270       10.1831130757
  C        35.7424985032       17.1464950576       10.9100656120
  C        35.9596181305       16.1522203849       11.8763453718
  C        37.1478750343       16.1253417506       12.6029123551
  C        38.1510914628       17.0891011891       12.3810821212
  C        37.9415772193       18.0561362691       11.3798630423
  C        36.7516818158       18.0898062700       10.6585690407
  C        39.4007604461       17.1025540400       13.1751988298
  C        39.3783296997       17.1084138619       14.5967646112
  C        38.1612867240       17.2225446419       15.3401522171
  C        35.1240145799       26.6392413003       15.2883539924
  C        35.1619747733       26.6514006606       12.4786594515
  C        26.5569992553       17.8146372257       10.3273688722
  C        25.2479790623       17.8570930303       11.0394224244
  C        24.9526851398       18.9084727352       11.9206666383
  C        23.7353004516       18.9349130971       12.5950508022
  C        22.7841649417       17.9135962969       12.4044894672
  C        23.0729322058       16.8846479935       11.4908139207
  C        24.2924367615       16.8538248196       10.8178113931
  C        21.5175075560       17.9071689110       13.1716930181
  C        21.5379390242       17.9182468285       14.5918813664
  C        22.7558679842       17.8224793829       15.3371458868
  C        14.0437830235       17.8299962339       10.2852033329
  C        15.3488594086       17.8895217128       11.0057610280
  C        15.6102010473       18.9025809629       11.9408251819
  C        16.8199251623       18.9247152930       12.6310744595
  C        17.7988908337       17.9361758543       12.4068846206
  C        17.5430429550       16.9476496588       11.4386244226
  C        16.3329393310       16.9214366238       10.7495992659
  C        19.0646992997       17.9194347890       13.1774661114
  C        19.0572562001       17.9260669919       14.5990419636
  C        17.8465012965       17.8301028620       15.3549122634
  C        46.8019529414       17.2179764713       10.1594477023
  C        45.5101182698       17.1522350234       10.9041705338
  C        45.3050840257       16.1723377524       11.8882685041
  C        44.1221045314       16.1481537631       12.6228409714
  C        43.1117326833       17.1038194009       12.3970776223
  C        43.3142315253       18.0634380883       11.3863196918
  C        44.4980192117       18.0914761241       10.6523918455
  C        41.8572548123       17.1084460793       13.1863344214
  C        41.8628702536       17.1041905982       14.6090241947
  C        43.0716088461       17.2004091368       15.3680357993
  C        20.3007910874       17.9430503853       15.3116222989
  C        20.2902179907       17.8883972134       12.4990477282
  C        46.7826894096       17.2305693654        21.878038356838
  C        45.4786051712       17.1209901559        21.162916623838
  C        45.2613621561       16.1199621538        20.203569811438
  C        44.0723348553       16.0872204558        19.478670584638
  C        43.0691888921       17.0521911631        19.695155603838
  C        43.2770456249       18.0231278532        20.692952953838
  C        44.4673387370       18.0623777596        21.412947929238
  C        41.8212596978       17.0684934211        18.898711619638
  C        41.8446417265       17.0819603698        17.477285815138
  C        43.0628746347       17.1870403870        16.734730501438
  C        46.1531274755       26.6371825254        16.715957732638
  C        46.1618445788       26.6559351279        19.525600681438
  C        14.0388789210       17.8292064387        21.697554197238
  C        15.3533133920       17.9010857602        20.999230926838
  C        15.6215967535       18.9247889329        20.078921447438
  C        16.8459343621       18.9646286331        19.417329717638
  C        17.8252359305       17.9798299412        19.652956391538
  C        17.5628399988       16.9822788780        20.608740869638
  C        16.3405492158       16.9421048863        21.273965213038
  C        19.0907048773       17.9633060933        18.885554353838
  C        19.0709415688       17.9485614768        17.464959443338
  C        17.8533628828       17.8400785618        16.720811673038
  C        28.8117570517       14.0852591314       10.3660383631
  C        28.2152511883       12.9075082023       11.0565581068
  C        28.9400944416       12.1893466828       12.0186356728
  C        28.3497582059       11.1120784691       12.6751017332
  C        27.0220498586       10.7311707546       12.3933656948
  C        26.3206709431       11.4304807107       11.3946769515
  C        26.9079350026       12.5071213086       10.7367675597
  C        26.3547408143        9.6497884545       13.1528588978
  C        26.3262879873        9.6777720484       14.5734402091
  C        26.8210345412       10.7915014980       15.3237168590
  C        32.1803972978       21.2390524689       10.1087630495
  C        32.7670033274       22.4026294158       10.8387677027
  C        32.0150140131       23.0762569958       11.8140352640
  C        32.5829915489       24.1118651687       12.5512751272
  C        33.9181380630       24.5051494731       12.3335583009
  C        34.6522528038       23.8494320156       11.3267296530
  C        34.0880001998       22.8073326277       10.5931143013
  C        34.5443816831       25.5817181921       13.1372095894
  C        34.5331641808       25.5549082245       14.5594022124
  C        34.0241414131       24.4403880213       15.2980534686
  C        25.7074926700        8.6003366691       15.2853896404
  C        25.7246167290        8.5986232439       12.4736632383
  C        32.0710711376       21.1916943104        21.830448217438
  C        32.6528733973       22.3586764958        21.099812736438
  C        31.9263860720       23.0119372239        20.092304326338
  C        32.5044671792       24.0538225113        19.369756374138
  C        33.8247842367       24.4709500964        19.631719462138
  C        34.5318363305       23.8328056737        20.669056241438
  C        33.9576272203       22.7886787083        21.389636629238
  C        34.4703413112       25.5524835194        18.850305829038
  C        34.4952196420       25.5403774366        17.427697886138
  C        34.0052005838       24.4337506335        16.664764230138
  C        40.6066088916       17.0797234153        16.754383888538
  C        40.5904437982       17.0912087019        19.564566751838
  C        28.6675922445       14.0586089399        21.808190266438
  C        28.0643944921       12.9125129803        21.068929567338
  C        28.8161062961       12.2069710874        20.117086849138
  C        28.2437835148       11.1514420210        19.413038381438
  C        26.9050655399       10.7750550187        19.638359567838
  C        26.1698719244       11.4660541005        20.619312927738
  C        26.7404927903       12.5235026698        21.324414161838
  C        26.2757096904        9.6843348579        18.858658817538
  C        26.2876402796        9.6953527197        17.437511276938
  C        26.8006131279       10.8010040218        16.689234865538
  C        18.1353512383        3.1808066041       10.3171368479
  C        17.4056762617        4.2779879699       11.0156866316
  C        16.3897761143        3.9993951848       11.9429071902
  C        15.7417811406        5.0392149846       12.6064224887
  C        16.0936439958        6.3829639315       12.3669664669
  C        17.0832162422        6.6527414452       11.4034893218
  C        17.7325848765        5.6155435461       10.7384544371
  C        15.4691408554        7.4905617278       13.1300482148
  C        15.4846041762        7.4900500442       14.5517679988
  C        16.1863366908        6.4965364521       15.3049059712
  C        42.9457477329       31.8595165023       10.0728240837
  C        43.6461254952       30.7717820947       10.8167611531
  C        44.5918884850       31.0930983009       11.8025967200
  C        45.1975738875       30.0875436713       12.5502674791
  C        44.8708590693       28.7345284032       12.3356094338
  C        43.9447765116       28.4201813521       11.3226485274
  C        43.3359892059       29.4253391491       10.5745995251
  C        45.4884297017       27.6552326480       13.1388071527
  C        45.4927185165       27.6809079482       14.5604984156
  C        44.8057608045       28.6890588386       15.3070980754
  C        14.8556246161        8.5625573461       15.2641126369
  C        14.8736359372        8.5621718515       12.4514514519
  C        42.9463806674       31.9615759045        21.798763510738
  C        43.6914971305       30.8853739711        21.085188470038
  C        44.6565028788       31.1912664263        20.113306922038
  C        45.2779617914       30.1716632607        19.395539312938
  C        44.9536803010       28.8214077911        19.632765260438
  C        44.0196828926       28.5237353444        20.643047328838
  C        43.3914942605       29.5405232222        21.355263828038
  C        45.5627324085       27.7240026983        18.847526689438
  C        45.5331924753       27.7173655733        17.426231582538
  C        44.8270307135       28.7077055209        16.673279344338
  C        35.1068732244       26.6305579087        16.723918075238
  C        35.0824750752       26.6108368167        19.534272489938
  C        18.1485671990        3.2467656834        21.696413463738
  C        17.4299226617        4.3436282595        20.986938049838
  C        16.4144242414        4.0523122117        20.063732702238
  C        15.7660133528        5.0829084020        19.388344045938
  C        16.1208780754        6.4281227755        19.610764962238
  C        17.1126361109        6.7115596064        20.567595927438
  C        17.7603973510        5.6826800298        21.247352816438
  C        15.4902171318        7.5237875976        18.838355917038
  C        15.4959803870        7.5071687462        17.417212693638
  C        16.1927335715        6.5054610385        16.670512640738
  H        10.6723244478       12.4664569584        19.893420034738
  H        11.6943747865       10.5515790214        18.651610380138
  H        15.3904702730       11.1668209725        20.763416430438
  H        14.3500947202       13.0695984834        22.008757130338
  H        13.3755474148       11.6307957933        17.190948879138
  H        50.3223077996       22.7486498330        19.976868428038
  H        49.3190126589       24.6229474131        18.670700228838
  H        45.6414248131       24.1608130729        20.853273318338
  H        46.6623448963       22.2900299925        22.161609369538
  H        47.6292277405       23.5756541095        17.235917457138
  H        14.8716690779        8.5878076914        20.598268609538
  H        50.2866550990       22.7025728537       12.0603304219
  H        49.2685892810       24.5753808013       13.3604200751
  H        45.6101334771       24.1092009164       11.1458247822
  H        46.6522145646       22.2539627513        9.8315494823
  H        47.6072590513       23.5516139278       14.7968263085
  H        40.6366723903       17.0939610767       11.4209294444
  H        48.6868638702       14.0949384852        23.789718871338
  H        10.6810355313       12.4676251139       12.0944181201
  H        11.6888272371       10.5255219280       13.2981199799
  H        15.3914851120       11.1559219521       11.2033344861
  H        14.3633757762       13.0844954259        9.9879338247
  H        13.3748947941       11.6215974952       14.7530384399
  H        47.9300135099       14.2176895713        9.7109269461
  H        47.7797850093       14.3729467742        22.484812006638
  H        49.0819900489       18.5521172294       10.8670461180
  H        10.4155331488       14.1343397001        7.9987987031
  H        24.4698524775        3.0232375889        19.896927873838
  H        25.5993669053        4.8813807857        18.657024133238
  H        23.2107597407        7.7485161460        20.795261734138
  H        22.1013462896        5.8809523253        22.038586320038
  H        23.8042676461        5.7789950839        17.214473346438
  H        36.3724104312       32.1867780552        19.957119390138
  H        35.2381927176       30.3675631355        18.681471083038
  H        37.4922224452       27.4354456190        20.877665332038
  H        38.6072398334       29.2676505098        22.162080354438
  H        37.0038202443       29.4461506665        17.262392512338
  H        25.6789361294        8.6073154761        20.617987102638
  H        36.4516125862       32.2380367323       12.1116459581
  H        35.3349958982       30.4212179301       13.4022248987
  H        37.5184311867       27.4840874846       11.1407092869
  H        38.6098380463       29.3127550348        9.8373886360
  H        37.0283213861       29.4635326894       14.8250955643
  H        46.1087557176       26.5874045577       11.3854926323
  H        44.6682729675       35.1161913261        23.803905310138
  H        24.4563772584        3.0304502938       12.0609664570
  H        25.6058661095        4.8665780998       13.3023254761
  H        23.2023395510        7.7641200559       11.2238095736
  H        22.0646063171        5.9162659870        9.9816918143
  H        23.8110031356        5.7793956160       14.7750624359
  H        44.9536892705       34.3899653699        9.6948017210
  H        44.9019117814       34.2068155913        22.480555781738
  H        40.6653125998       33.2084437546       10.8528823721
  H        23.1502059577        1.9577422664        8.0031892196
  H        25.7555232843       19.6771864220        19.965879363438
  H        23.5908816162       19.7397337911        18.721634124338
  H        22.3144809854       16.1853690395        20.778434441238
  H        24.4858275598       16.1362608901        22.020659357938
  H        23.7023568081       17.7245926243        17.238171145238
  H        35.1093905184       15.4644207228        19.968529721838
  H        37.2369882584       15.3941894695        18.665125137338
  H        38.6991583433       18.7704724626        20.894929781638
  H        36.5720593621       18.8135192070        22.207985510338
  H        37.2128697327       17.3481590540        17.237242313738
  H        20.3217807058       17.9716806252        20.645663837338
  H        35.1839996824       15.4106608472       12.0541807282
  H        37.3120506588       15.3521036290       13.3502980495
  H        38.7089353586       18.8067048984       11.2018922336
  H        36.5703698311       18.8546944469        9.9072736112
  H        37.2275728957       17.3447097624       14.7986693486
  H        35.1371185406       26.6767724803       11.3908375104
  H        28.5027162193       21.0801615283        23.864525829238
  H        25.6840248977       19.7035621834       12.0491223029
  H        23.5022139841       19.7522902046       13.2742263451
  H        22.3444886642       16.0903210554       11.3413974073
  H        24.5336599496       16.0506432536       10.1254100359
  H        23.6894949061       17.7067400342       14.7947605673
  H        28.9982912323       21.7172269587        9.7448245427
  H        29.2131856035       21.6882708450        22.540490547338
  H        32.1212664419       18.6348852652       10.8804843961
  H        27.3703178212       19.0309939715        8.0727820843
  H        14.8547163088       19.6662937860       12.1112146355
  H        17.0216421969       19.7147436663       13.3512447793
  H        18.2903311535       16.1774879563       11.2588733561
  H        16.1202630261       16.1460184748       10.0175909229
  H        16.9063726621       17.7140552941       14.8236377319
  H        46.0900319207       15.4422046726       12.0710342466
  H        43.9661287497       15.3797217116       13.3768608817
  H        42.5439185452       18.8104111682       11.2059179295
  H        44.6680019733       18.8474186767        9.8892159451
  H        44.0130173918       17.3174441765       14.8389009562
  H        20.2884392452       17.9033234283       11.4106363425
  H        46.0401230911       15.3814783719        20.027157285838
  H        43.9081771905       15.3099046058        18.735522148638
  H        42.5084570188       18.7731655828        20.867687368038
  H        44.6472456764       18.8314618318        22.160153155438
  H        43.9978094598       17.2925146905        17.277478550338
  H        46.1984430033       26.6824073572        20.613055099238
  H        52.7409444546       21.0625497915        8.1945610863
  H        14.8613167076       19.6819757834        19.900814959638
  H        17.0575219811       19.7608937218        18.706951275538
  H        18.3129414785       16.2162197046        20.793958540138
  H        16.1190284608       16.1617192713        21.997888900738
  H        16.9182842083       17.7316523476        17.262170726738
  H        52.3216502989       21.6734952576        22.284876246338
  H        52.0131687932       21.7022661686        9.4955034571
  H        49.0662904707       18.6077365812        21.194422585638
  H        13.2467336575       19.0167383472        23.966316876238
  H        29.9606069051       12.4945725397       12.2396814471
  H        28.9121372678       10.5538106164       13.4204071498
  H        25.2951772562       11.1449177147       11.1696839481
  H        26.3642323196       13.0681230464        9.9807313050
  H        27.1920686864       11.6601201221       14.7879346943
  H        30.9882738117       22.7631176399       11.9883787202
  H        31.9940202524       24.6321382987       13.3034860855
  H        35.6855192500       24.1421075437       11.1515528169
  H        34.6622197722       22.2772670556        9.8366577194
  H        33.6737767092       23.5689291980       14.7523025406
  H        25.7647223848        8.5791233791       11.3859920221
  H        30.9128665664       22.6796381564        19.879412104738
  H        31.9329896317       24.5600114574        18.594824015838
  H        35.5537294276       24.1417174518        20.879281161838
  H        34.5117959222       22.2745643574        22.171322368138
  H        33.6405341158       23.5567552221        17.192078395138
  H        40.5847304881       17.0552760891        20.652323472338
  H        32.5153181819       14.1493948320        8.2317896068
  H        29.8507911113       12.4959833576        19.948375792438
  H        28.8324440937       10.6002547913        18.682974866138
  H        25.1339654752       11.1854418526        20.798291639838
  H        26.1714372546       13.0747312358        22.069286269738
  H        27.1542738860       11.6769837378        17.225354824238
  H        33.2933283058       14.2163574143        22.423009762438
  H        33.4072622460       14.3897245092        9.5993948334
  H        32.0381319397       18.4709995691        21.064828106538
  H        30.2064381105       14.1381311000        8.0785689120
  H        16.1178421426        2.9628197784       12.1291038644
  H        14.9521761530        4.8196525816       13.3218586051
  H        17.3656223073        7.6856632262       11.2105979024
  H        18.5148422548        5.8183125882       10.0108703483
  H        16.7528555755        5.7391989081       14.7713553426
  H        44.8283255016       32.1401737555       11.9766178386
  H        45.9376078799       30.3412684840       13.3060565800
  H        43.6817972784       27.3781458933       11.1527645207
  H        42.5991372194       29.1900503204        9.8101442275
  H        44.2305029378       29.4368788838       14.7687626275
  H        14.8497157842        8.5452137172       11.3632371972
  H        44.9003999858       32.2339303428        19.922207771738
  H        46.0252043125       30.4128491019        18.642622124838
  H        43.7622400970       27.4840472221        20.834194107638
  H        42.6445830449       29.3177770955        22.113320457238
  H        44.2686149918       29.4706526053        17.207876798538
  H        35.0361989445       26.6249492549        20.621614240538
  H        36.6053095930       35.1338366089        8.1807210854
  H        16.1432206384        3.0127197953        19.894275574738
  H        14.9734508065        4.8560135802        18.678537971138
  H        17.3963809294        7.7470130723        20.744177190638
  H        18.5435352900        5.8931257234        21.971838284738
  H        16.7642671552        5.7552997907        17.208962195638
  H        36.2792000385       34.4816593981        22.263206601838
  H        36.3813188996       34.2089077898        9.4997663585
  H        40.5795894376       33.2022727385        21.143711457238
  H        17.4708969091        1.9471150444        23.963821942238
  H        28.6418703060       18.7952866259       12.0477577605
  H        28.7574100836       18.8310366818        19.718213634638
  H        30.7537787450       15.4185033024        19.770659023138
  H        32.3576884603       16.5814734658       12.2831531244
  H        29.1795786112       19.1397917841       14.5792896582
  H        18.8538952605        0.8689990484       12.3352708432
  H        40.5282732613       35.2287185748        19.941918661938
  H        42.3234837394       34.4184226539        19.580163759238
  H        22.0874388065        0.6922313569       12.3516101244
  H        11.5967113907       18.7129885502       12.3824735885
  H        52.2648633526       18.4307039170        19.667741171938
  H        49.2550297133       16.4766920424        19.573967385838
  H        10.1502517664       15.7981271335       12.2924482296
  H        50.8496596797       17.6927403708        19.943915903338
  H        10.0458903143       17.3945792743       12.0519953131
  H        20.2152618166        0.0020881605       12.0419077754
  H        39.1837361234       36.1242901994        19.676284836838
 Ni        30.3981954268       17.4981014033        18.659878999538
 Ni        31.1133007367       16.1090096143       14.740163171938
 Ni        29.9680210098       17.1627626111        16.400204077738
 Ni        30.3066786070       17.4102981536       13.0794607260
  O        10.6497265311       14.3652410118        21.475545078738
  O        12.6129811676       14.6574052821        22.573615893538
  O        49.1475856792       16.8460360174        23.979529042438