     576
 i =      106, E =     -4780.0820865512
  C        11.8588319126       14.0535009230        21.731325596338
  C        12.4563601234       12.8906127691        21.013000975038
  C        11.7045690067       12.1714622806        20.071585038238
  C        12.2809672847       11.1092600915        19.379256153938
  C        13.6216463763       10.7397082384        19.606778057638
  C        14.3549598577       11.4435742093        20.579913205738
  C        13.7820509451       12.5085558703        21.271400404338
  C        14.2611441540        9.6490004090        18.833408149138
  C        14.2563457443        9.6568463814        17.411711205838
  C        13.7431690331       10.7589768493        16.657823666338
  C        49.1269777453       21.2332025460        21.869460064038
  C        48.5502236314       22.4012224852        21.142379308138
  C        49.3002206107       23.0685032481        20.161346636538
  C        48.7332899322       24.1076715504        19.428165276838
  C        47.4027814426       24.5093523702        19.656861560838
  C        46.6718648720       23.8605283159        20.670426586338
  C        47.2343205919       22.8155997003        21.399742572338
  C        46.7724771025       25.5870321385        18.859607159738
  C        46.7612963713       25.5573541588        17.437848163238
  C        47.2611978504       24.4422411347        16.694361198338
  C        14.8603030786        8.5705188021        16.698451768038
  C        14.8919793889        8.5970972388        19.510066429538
  C        49.1133441681       21.2034238962       10.1453696474
  C        48.5279318617       22.3648143591       10.8726047329
  C        49.2670841484       23.0254455768       11.8656142322
  C        48.6907345934       24.0600125060       12.5970670718
  C        47.3603734344       24.4568674261       12.3587117087
  C        46.6400481658       23.8120647481       11.3350631681
  C        47.2136282527       22.7761550680       10.6033015486
  C        46.7218620307       25.5318237182       13.1497173308
  C        46.7334545687       25.5281343756       14.5714245276
  C        47.2488825929       24.4289173237       15.3278098678
  C        40.6361128839       17.1461055299       15.3229929757
  C        40.6572003443       17.1816258617       12.5141377561
  C        11.8831045256       14.0865396236       10.2855256549
  C        12.4724825883       12.9108337172       10.9898355878
  C        11.7148734708       12.1773996064       11.9156887117
  C        12.2814981625       11.0949562630       12.5840889677
  C        13.6204283338       10.7214757398       12.3524911807
  C        14.3585316057       11.4373271550       11.3920079442
  C        13.7930709968       12.5184888900       10.7193239530
  C        14.2539843424        9.6246665084       13.1228695852
  C        14.2525989579        9.6445574256       14.5447074350
  C        13.7426407935       10.7534663227       15.2917795304
  C        22.5126552378        3.2445297990        21.742882292138
  C        23.2288626092        4.3489589690        21.043763457338
  C        24.2251248129        4.0672813371        20.097184536638
  C        24.8539258021        5.1056636086        19.415016369038
  C        24.5025048379        6.4481848533        19.659176548438
  C        23.5346399637        6.7213377188        20.642995630838
  C        22.9010546141        5.6847779460        21.323551675838
  C        25.1098032321        7.5537882322        18.883221962638
  C        25.0803884105        7.5475486494        17.461729378638
  C        24.3761824093        6.5495866301        16.715735398138
  C        38.2986432341       31.9282488756        21.841766422038
  C        37.5581153737       30.8393787693        21.139763285138
  C        36.5935081109       31.1463189452        20.167665541838
  C        35.9643892483       30.1283483978        19.456134693338
  C        36.2845821621       28.7772453085        19.693733629138
  C        37.2184808387       28.4776645703        20.703555945738
  C        37.8516157100       29.4946803642        21.414402897638
  C        35.6753248270       27.6891765164        18.894298142438
  C        35.7163263623       27.7042160489        17.472644757938
  C        36.4307767804       28.7042071566        16.740006210538
  C        25.7036178485        8.6173049396        16.741730476438
  C        25.7097626575        8.6272713606        19.553694960838
  C        38.3308845451       31.9614381680       10.1599828486
  C        37.6144794419       30.8886239752       10.9097168236
  C        36.6824655996       31.1989153937       11.9120370202
  C        36.0729394728       30.1822978601       12.6453089241
  C        36.3804000772       28.8288928920       12.4001697100
  C        37.2933622598       28.5284242590       11.3705687358
  C        37.9048324109       29.5416233766       10.6385530796
  C        35.7652802351       27.7309219834       13.1820434515
  C        35.7620179264       27.7257289335       14.6045247783
  C        36.4513132768       28.7153248110       15.3735715775
  C        46.1354230802       26.6207653693       15.2815563678
  C        46.0879556172       26.5802136243       12.4736627990
  C        22.4612004016        3.2562977787       10.2579255733
  C        23.1553972358        4.3650518148       10.9806488245
  C        24.1575527464        4.0792077253       11.9215709946
  C        24.7857191334        5.1094217790       12.6173154615
  C        24.4321670875        6.4555425326       12.3951640590
  C        23.4530834041        6.7345632938       11.4227264181
  C        22.8202126932        5.7046246076       10.7274169732
  C        25.0635430561        7.5534948928       13.1694955233
  C        25.0573828895        7.5466402932       14.5924233269
  C        24.3633846246        6.5501356628       15.3490649117
  C        26.6210546224       17.8624748173        21.774069399938
  C        25.3152623646       17.9013345683        21.046344185138
  C        25.0535197992       18.8968976622        20.091693473238
  C        23.8410280966       18.9141361924        19.404832293538
  C        22.8523869911       17.9398230837        19.651672119138
  C        23.1106920848       16.9661166218        20.634908216338
  C        24.3257764206       16.9426763289        21.318353913638
  C        21.5786186427       17.9252558698        18.888087420038
  C        21.5789441863       17.9043555831        17.465531099038
  C        22.7845661297       17.7786807510        16.705444486438
  C        34.4406882584       17.1921205763        21.906877792238
  C        35.7311567071       17.1466873551        21.160301324838
  C        35.9333503991       16.1860229830        20.157226572838
  C        37.1138569479       16.1769746788        19.420045369638
  C        38.1242423294       17.1261724677        19.668308315838
  C        37.9247373841       18.0670148552        20.696257602538
  C        36.7408518071       18.0826389276        21.429411423338
  C        39.3790783344       17.1373391836        18.884389348038
  C        39.3760879694       17.1582539128        17.463158000138
  C        38.1699697640       17.2846425120        16.704511455138
  C        20.3323738304       17.9252730538        16.756908012238
  C        20.3537460439       17.9295770749        19.570400167438
  C        34.4811386159       17.2462679713       10.1793968375
  C        35.7813485542       17.1780518850       10.9065028891
  C        36.0025324917       16.1891891137       11.8766303942
  C        37.1875661719       16.1755551065       12.6063569493
  C        38.1799710367       17.1491519284       12.3827286085
  C        37.9659626322       18.1132707550       11.3805794397
  C        36.7780837572       18.1327329452       10.6550526145
  C        39.4263157776       17.1684675534       13.1780458740
  C        39.4001942742       17.1742157060       14.5985229026
  C        38.1810004830       17.2899065838       15.3379920264
  C        35.1219995410       26.6491032331       15.3042969357
  C        35.1782268225       26.6606256990       12.4948512896
  C        26.5744476184       17.8280416460       10.3265486244
  C        25.2594263197       17.8725949282       11.0324881245
  C        24.9959414017       18.8751942163       11.9779725386
  C        23.7779775170       18.8998622439       12.6516504229
  C        22.7940029494       17.9220884299       12.4030956167
  C        23.0517988205       16.9445003649       11.4250536401
  C        24.2706083634       16.9175292455       10.7499904818
  C        21.5301483685       17.9027232663       13.1757524140
  C        21.5539850345       17.8913160566       14.5973200800
  C        22.7722007220       17.7723863992       15.3391624255
  C        14.0472736798       17.8289497565       10.2889226496
  C        15.3518153553       17.8861920562       11.0138424018
  C        15.6083350251       18.8885060009       11.9625401345
  C        16.8174383030       18.9091285411       12.6553020166
  C        17.8047102089       17.9303852130       12.4217491714
  C        17.5529975977       16.9525858617       11.4406745511
  C        16.3433647015       16.9272761623       10.7495080003
  C        19.0737954406       17.9124753683       13.1909429314
  C        19.0724131570       17.9085357982       14.6135042775
  C        17.8653129398       17.8107969236       15.3747664058
  C        46.8072538226       17.2204478153       10.1596950341
  C        45.5198794440       17.1648813298       10.9086324322
  C        45.3130294924       16.1908353086       11.8973344710
  C        44.1333062728       16.1804955081       12.6363623564
  C        43.1322712291       17.1444305463       12.4074662310
  C        43.3367414184       18.0985873273       11.3927907812
  C        44.5169770071       18.1128102712       10.6549140738
  C        41.8797918701       17.1615068964       13.1950527446
  C        41.8838191066       17.1581883263       14.6165344782
  C        43.0920506783       17.2481163979       15.3769310705
  C        20.3191597583       17.9173582360       15.3220097791
  C        20.2981774072       17.8929444146       12.5089247428
  C        46.7859621085       17.2306093333        21.880556980038
  C        45.4817474909       17.1246820124        21.167913235738
  C        45.2629856327       16.1292461242        20.203818078238
  C        44.0746842705       16.1054962907        19.478186994338
  C        43.0767228129       17.0739156784        19.700644840238
  C        43.2849191711       18.0375452215        20.704821184738
  C        44.4744649293       18.0679990813        21.425077633738
  C        41.8323136035       17.1025933083        18.902171128838
  C        41.8598339610       17.1264487894        17.481703020938
  C        43.0806679843       17.2306718065        16.743282416838
  C        46.1532404570       26.6372187958        16.716108842938
  C        46.1626086836       26.6561919521        19.525744025638
  C        14.0460714117       17.8315249025        21.698273996638
  C        15.3671945795       17.9049600168        21.007874426738
  C        15.6417470175       18.9195002360        20.078573590338
  C        16.8709822427       18.9554800434        19.423974076238
  C        17.8537660204       17.9760113294        19.672415712438
  C        17.5861056356       16.9906683872        20.640210443338
  C        16.3589802370       16.9541826660        21.298415824338
  C        19.1211418660       17.9494259320        18.903396171638
  C        19.0972160857       17.9263065898        17.481799393638
  C        17.8774061686       17.8188409230        16.740806536838
  C        28.8139626805       14.0970424494       10.3961396389
  C        28.2004982766       12.9233805323       11.0841406740
  C        28.9269230033       12.1709142077       12.0189620835
  C        28.3267500900       11.0953077769       12.6692176327
  C        26.9861496906       10.7469069038       12.4074567867
  C        26.2810669757       11.4793547195       11.4358061712
  C        26.8786696411       12.5557319313       10.7850664326
  C        26.3169961538        9.6656116262       13.1672230296
  C        26.3065973264        9.6906482234       14.5882346357
  C        26.8124730187       10.8025277907       15.3337615459
  C        32.1799213687       21.2436320264       10.1453662566
  C        32.7737472790       22.4091108478       10.8668617855
  C        32.0215427506       23.0922567434       11.8349908321
  C        32.5903179342       24.1327572452       12.5635053651
  C        33.9275930014       24.5179445257       12.3464298995
  C        34.6626812835       23.8530726579       11.3467865267
  C        34.0959118459       22.8078729053       10.6194060554
  C        34.5541991655       25.5930642447       13.1499513816
  C        34.5334218736       25.5665640165       14.5717212621
  C        34.0141888873       24.4541131949       15.3066302516
  C        25.6963644492        8.6131096215       15.3070501962
  C        25.6786270169        8.6162031452       12.4934361958
  C        32.0763151239       21.2021502013        21.864465928038
  C        32.6462401108       22.3639861685        21.118845665738
  C        31.9084280222       23.0234650170        20.123482605938
  C        32.4820260512       24.0629949206        19.392805119738
  C        33.8069527839       24.4750201562        19.639672128438
  C        34.5256676707       23.8300769691        20.664562190938
  C        33.9578121809       22.7861477141        21.389303431738
  C        34.4486192717       25.5607103122        18.861046997138
  C        34.4776362218       25.5509707351        17.439132287538
  C        33.9860434292       24.4475717060        16.672935135938
  C        40.6235980029       17.1338201884        16.756698908838
  C        40.6010625273       17.1262466977        19.565854207338
  C        28.7490204504       14.0679855050        21.808126651638
  C        28.1387004098       12.9217842782        21.069602610838
  C        28.8732707880       12.2300047037        20.094507010238
  C        28.2939167022       11.1723444688        19.397402888938
  C        26.9634269444       10.7809556780        19.649112339738
  C        26.2457595543       11.4611092853        20.650756073138
  C        26.8238579963       12.5187169097        21.350236798938
  C        26.3215515242        9.6902634383        18.876483184238
  C        26.3094371335        9.7039153257        17.454529451438
  C        26.8109923705       10.8105044480        16.699585168538
  C        18.1354573606        3.1810595815       10.3171676522
  C        17.4062472360        4.2782639008       11.0157975511
  C        16.3904305556        3.9999405753       11.9432359951
  C        15.7427535160        5.0399443960       12.6067218082
  C        16.0947607408        6.3836636511       12.3671025321
  C        17.0842368094        6.6531470383       11.4034198878
  C        17.7332912733        5.6157855979       10.7383649458
  C        15.4704075447        7.4913404203       13.1301485473
  C        15.4855759830        7.4905549153       14.5518622203
  C        16.1871260723        6.4969350917       15.3050331427
  C        42.9458566333       31.8595895665       10.0728649993
  C        43.6462403647       30.7718876510       10.8168008396
  C        44.5914909205       31.0932342531       11.8031315452
  C        45.1972111173       30.0876958808       12.5508013473
  C        44.8710753618       28.7345933014       12.3357252671
  C        43.9455958018       28.4202378724       11.3221886507
  C        43.3367760706       29.4253681601       10.5741341608
  C        45.4886334478       27.6552887450       13.1389272015
  C        45.4927168500       27.6808890064       14.5606256352
  C        44.8056184471       28.6889156614       15.3072703842
  C        14.8565412759        8.5629997364       15.2642336308
  C        14.8752632077        8.5631904618       12.4515595337
  C        42.9464877913       31.9616871279        21.798782574138
  C        43.6917725427       30.8855494491        21.085356684138
  C        44.6561904849       31.1914765573        20.112886605338
  C        45.2777426618       30.1718955402        19.395175330938
  C        44.9542001253       28.8215503621        19.632988875338
  C        44.0210040566       28.5238799536        20.644040922338
  C        43.3927089104       29.5406323021        21.356211454738
  C        45.5631848247       27.7241401827        18.847715872838
  C        45.5333116787       27.7173887104        17.426418357338
  C        44.8269391207       28.7075776564        16.673455921938
  C        35.0960171781       26.6399419578        16.739358796138
  C        35.0592483995       26.6167601180        19.549708862238
  C        18.1486412999        3.2470431549        21.696364469338
  C        17.4300961889        4.3438264013        20.987099775738
  C        16.4147843924        4.0525801665        20.063617991338
  C        15.7664870851        5.0832302771        19.388268523438
  C        16.1212851157        6.4284555344        19.610898256938
  C        17.1128263376        6.7118118831        20.567995487338
  C        17.7604966460        5.6828841352        21.247737539138
  C        15.4907454397        7.5241349751        18.838468752438
  C        15.4965323340        7.5074256924        17.417337881338
  C        16.1933286571        6.5057474595        16.670638598838
  H        10.6723561490       12.4654079031        19.894756867238
  H        11.6946325054       10.5505808549        18.652906777838
  H        15.3921283033       11.1692979354        20.761350515738
  H        14.3516666645       13.0720620070        22.006502645938
  H        13.3761918596       11.6311071662        17.191149835838
  H        50.3229142644       22.7484256419        19.976570807938
  H        49.3197722526       24.6229184411        18.670570413438
  H        45.6424073246       24.1613723862        20.853668937238
  H        46.6633773264       22.2903619980        22.161889201538
  H        47.6298059113       23.5759011426        17.236059749538
  H        14.8724980598        8.5884632679        20.598376982238
  H        50.2871069614       22.7025401791       12.0605769963
  H        49.2691089213       24.5754151577       13.3606217381
  H        45.6107074931       24.1094382089       11.1458651088
  H        46.6529200983       22.2540867510        9.8315930927
  H        47.6077012767       23.5518162524       14.7969085667
  H        40.6643036850       17.1511476268       11.4262927792
  H        48.6871587491       14.0949744271        23.789828946638
  H        10.6813097509       12.4662664786       12.0928799703
  H        11.6896622809       10.5243524655       13.2965800415
  H        15.3941058737       11.1597712877       11.2063708902
  H        14.3655632886       13.0881379669        9.9911307321
  H        13.3759004887       11.6221135609       14.7531366770
  H        47.9302474786       14.2184924856        9.7108799758
  H        47.7801747271       14.3740489664        22.485122005538
  H        49.0851017854       18.5527810510       10.8676464446
  H        10.4163058218       14.1342540231        7.9986799391
  H        24.4842840224        3.0282697873        19.906268631238
  H        25.6264549645        4.8867892159        18.681041838538
  H        23.2559903368        7.7548247080        20.838127204438
  H        22.1315925260        5.8867207638        22.064705399938
  H        23.8146777848        5.7931521100        17.256242804738
  H        36.3618711921       32.1904789310        19.971163943338
  H        35.2174157641       30.3711887055        18.703527860238
  H        37.4738684840       27.4375049067        20.895276591638
  H        38.5983989341       29.2700596939        22.172358200638
  H        36.9936050089       29.4527886128        17.289947864438
  H        25.7464122297        8.6093579419        20.641445842838
  H        36.4551869515       32.2433820748       12.1132554365
  H        35.3436172551       30.4297453333       13.4135097100
  H        37.5445764972       27.4880679243       11.1747907258
  H        38.6305347220       29.3135457781        9.8616444506
  H        37.0307302971       29.4722333618       14.8526370746
  H        46.1095372075       26.5876840533       11.3856301672
  H        44.6683467988       35.1162517263        23.803771184938
  H        24.4351670440        3.0410115743       12.0891607837
  H        25.5664241112        4.8803791215       13.3395426496
  H        23.1682851828        7.7690532425       11.2417926242
  H        22.0486085827        5.9178180490        9.9912216118
  H        23.7914057219        5.7947458057       14.8180970525
  H        44.9539910053       34.3905848896        9.6953293441
  H        44.9020034712       34.2068844579        22.480470826838
  H        40.6667156606       33.2096087640       10.8534054516
  H        23.1503919039        1.9581081581        8.0053361203
  H        25.8113575401       19.6545919452        19.905676840838
  H        23.6437895343       19.6922991633        18.670554697938
  H        22.3598200478       16.2041492501        20.834026679538
  H        24.5355103041       16.1770284535        22.061658567938
  H        23.7256534116       17.6556425747        17.233755975738
  H        35.1497089785       15.4570122787        19.965358043138
  H        37.2703263620       15.4247235678        18.650016647638
  H        38.6976937529       18.8075488465        20.891267846338
  H        36.5695815416       18.8228897963        22.207502982438
  H        37.2298993689       17.4073245800        17.234566557238
  H        20.3606689604       17.9694172674        20.658281335838
  H        35.2287919875       15.4455578872       12.0522526279
  H        37.3590821127       15.4068340759       13.3566696278
  H        38.7274472741       18.8702553216       11.2046245777
  H        36.5896816827       18.8933937225        9.9011662087
  H        37.2493931779       17.4158728127       14.7936436465
  H        35.1602977166       26.6856642811       11.4069252449
  H        28.5018719766       21.0848210325        23.957891170638
  H        25.7586057258       19.6272448930       12.1670038850
  H        23.5737579103       19.6811472929       13.3805693935
  H        22.3004399282       16.1826989693       11.2273664296
  H        24.4854377115       16.1509585024       10.0093241189
  H        23.7038124634       17.6451167777       14.7958936355
  H        29.0036205384       21.7202821951        9.7621113107
  H        29.1626211826       21.7403571518        22.613399554038
  H        32.1493141058       18.5683403660       10.9189516076
  H        27.3991470658       19.0711873739        8.0856493103
  H        14.8496684646       19.6470677364       12.1418312460
  H        17.0123115946       19.6927058295       13.3843854999
  H        18.3046210455       16.1890288357       11.2509081970
  H        16.1379342695       16.1588366682       10.0080399446
  H        16.9226262971       17.6965842587       14.8475383594
  H        46.0935183672       15.4557593625       12.0792223704
  H        43.9716375575       15.4174772563       13.3945791506
  H        42.5711991332       18.8505680206       11.2132407028
  H        44.6928342711       18.8631996065        9.8877794638
  H        44.0345052044       17.3628603021       14.8491124526
  H        20.2924158831       17.9240781993       11.4208173371
  H        46.0401046936       15.3898730514        20.024015915238
  H        43.9072106772       15.3342351547        18.729531959138
  H        42.5183839539       18.7888625717        20.882782776838
  H        44.6582615470       18.8315273795        22.176893584938
  H        44.0144323908       17.3307508696        17.288975811738
  H        46.1996512928       26.6828198019        20.613180921738
  H        52.7413013168       21.0626507259        8.1947053124
  H        14.8819510282       19.6737295605        19.885856307838
  H        17.0826764807       19.7453488853        18.706475082838
  H        18.3360233547       16.2280744325        20.840189630438
  H        16.1374742576       16.1803065639        22.029326874338
  H        16.9437418550       17.7108497165        17.284568100838
  H        52.3226548813       21.6733285040        22.283962378238
  H        52.0132443253       21.7020500255        9.4956149534
  H        49.0678986085       18.6077152475        21.193769509838
  H        13.2479548692       19.0159373231        23.967072044338
  H        29.9609978999       12.4418376387       12.2200881660
  H        28.8915225656       10.5115218433       13.3929296818
  H        25.2451220342       11.2206201288       11.2265301886
  H        26.3315701819       13.1419974979       10.0509146649
  H        27.1755886912       11.6711807006       14.7929277561
  H        30.9944162754       22.7825330868       12.0120577579
  H        32.0009952342       24.6615952412       13.3094254498
  H        35.6977526347       24.1402665178       11.1731544348
  H        34.6693901396       22.2699018884        9.8680175342
  H        33.6612151325       23.5857691231       14.7577588005
  H        25.7067011365        8.5982959345       11.4053408600
  H        30.8864382735       22.7054217154        19.929340295538
  H        31.9019742043       24.5742006472        18.627438060938
  H        35.5509061183       24.1359221736        20.862612674138
  H        34.5200664599       22.2676772955        22.162223694838
  H        33.6114928813       23.5737996781        17.198296100338
  H        40.5924288183       17.0816349554        20.653229681438
  H        32.5108287252       14.1403820163        8.2438884406
  H        29.8991709811       12.5351497951        19.901171015138
  H        28.8717998271       10.6315985812        18.651018862538
  H        25.2161189081       11.1722837714        20.851650612938
  H        26.2662916167       13.0592524201        22.111422438138
  H        27.1717290202       11.6855524237        17.232275555238
  H        33.3102723347       14.2261994866        22.457617576338
  H        33.4116648655       14.4022731539        9.5958449884
  H        32.1034900892       18.4943735044        21.163682609038
  H        30.2214178630       14.1857401346        8.0769982262
  H        16.1182865516        2.9634552653       12.1296038955
  H        14.9532447322        4.8206203688       13.3223325421
  H        17.3668203255        7.6859991026       11.2103983355
  H        18.5154374157        5.8184622110       10.0106414941
  H        16.7538111116        5.7396839303       14.7715446303
  H        44.8275812945       32.1403340480       11.9774855956
  H        45.9368970700       30.3415034330       13.3069047965
  H        43.6832462421       27.3781271030       11.1517935909
  H        42.6005203903       29.1900066804        9.8091289441
  H        44.2303043120       29.4367210255       14.7689781192
  H        14.8516818555        8.5465549973       11.3633338984
  H        44.8995780199       32.2341681901        19.921288035938
  H        46.0245010756       30.4131627635        18.641803705638
  H        43.7643311151       27.4841232054        20.835843798538
  H        42.6464517783       29.3178264499        22.114891410538
  H        44.2685010782       29.4705181394        17.208035264138
  H        35.0104125346       26.6286673811        20.636965529738
  H        36.6052866941       35.1340928992        8.1806030873
  H        16.1435883364        3.0130222242        19.893981806938
  H        14.9740773027        4.8564448652        18.678260951938
  H        17.3965358097        7.7472523314        20.744727204338
  H        18.5435533891        5.8933696676        21.972295417538
  H        16.7648651198        5.7555809947        17.209070072838
  H        36.2788733413       34.4823243045        22.262893355838
  H        36.3811748154       34.2089605053        9.4993878044
  H        40.5796198703       33.2022026377        21.143613417238
  H        17.4710621566        1.9474967465        23.963881388038
  H        29.1815674985       19.3148533576       12.5310475770
  H        29.5078128385       19.5028695918        19.575531757138
  H        31.8028768065       15.8093124041        19.572156362938
  H        31.4554990163       15.6327304775       12.4958314006
  H        28.2547260490       17.7346726650       14.4975028365
  H        29.7844992115       15.3776186946       14.4934115707
  H        31.2083985276       19.8060119350        17.564429556938
  H        32.8312889953       17.4156650815        17.566771561438
  H        28.9871353778       16.6739858371        17.016256565238
  H        32.0587925103       18.3896917815       15.0472965086
  H        18.8530751992        0.8689685984       12.3350973113
  H        40.5281736107       35.2288268832        19.941804525938
  H        42.3243892280       34.4191208373        19.580069836638
  H        22.0875384820        0.6920443151       12.3516669115
  H        11.5968383171       18.7129692079       12.3826551814
  H        52.2650873009       18.4313572768        19.666988316138
  H        49.2553401118       16.4770606396        19.574284625238
  H        10.1503728213       15.7981696618       12.2927817486
  H        50.8503250219       17.6924257024        19.943999038138
  H        10.0463110290       17.3944879586       12.0519353066
  H        20.2143103432        0.0021908661       12.0420369093
  H        39.1838634158       36.1244549251        19.676272137638
 Ni        30.9418997338       17.8213674249        18.984177691638
 Ni        31.2419392052       16.4627759170        16.150612815138