     576
 i =      264, E =     -4780.0814134453
  C        11.8589018786       14.0536039649        21.731211261638
  C        12.4563122905       12.8905211972        21.013112586038
  C        11.7045907917       12.1714973162        20.071543487838
  C        12.2809585436       11.1092655868        19.379239649938
  C        13.6216100002       10.7396623367        19.606824277438
  C        14.3549620370       11.4435636375        20.579904547438
  C        13.7820638497       12.5085742775        21.271352572638
  C        14.2611640796        9.6490343570        18.833392155638
  C        14.2563357359        9.6568256993        17.411696714938
  C        13.7431286766       10.7589520687        16.657824970938
  C        49.1269540211       21.2331647089        21.869393023138
  C        48.5501853020       22.4011664289        21.142294929038
  C        49.3002397947       23.0685305746        20.161361885538
  C        48.7332751612       24.1076481340        19.428132568638
  C        47.4027636594       24.5093234704        19.656830430738
  C        46.6718510320       23.8604986720        20.670397147338
  C        47.2343270445       22.8156222626        21.399769883138
  C        46.7724689308       25.5870401999        18.859619105638
  C        46.7613139788       25.5573551726        17.437858296338
  C        47.2611799893       24.4422388793        16.694350508638
  C        14.8603317157        8.5705075749        16.698454937038
  C        14.8919401896        8.5970988793        19.510052506338
  C        49.1133521874       21.2034572562       10.1453364149
  C        48.5279299537       22.3648111899       10.8726158075
  C        49.2670873743       23.0254541516       11.8656141210
  C        48.6907139555       24.0599973721       12.5970817492
  C        47.3603689568       24.4568883434       12.3586945775
  C        46.6400319381       23.8120271616       11.3350931054
  C        47.2136193752       22.7761359037       10.6033140149
  C        46.7218566046       25.5318237180       13.1497256077
  C        46.7334618671       25.5281481816       14.5714333500
  C        47.2488975044       24.4289191976       15.3277979086
  C        40.6365940456       17.1461583296       15.3229646369
  C        40.6577893860       17.1815719439       12.5141883686
  C        11.8831160926       14.0865315436       10.2855458674
  C        12.4725233589       12.9108612221       10.9898811708
  C        11.7148896113       12.1773969027       11.9156868421
  C        12.2815100615       11.0949821832       12.5841340008
  C        13.6203973786       10.7214131434       12.3524355286
  C        14.3585456440       11.4373054820       11.3920143009
  C        13.7930733523       12.5184389916       10.7192908437
  C        14.2539348463        9.6246374046       13.1228737060
  C        14.2525880121        9.6445394862       14.5447119725
  C        13.7426246558       10.7534471966       15.2917815387
  C        22.5128304937        3.2444768567        21.743086838638
  C        23.2292564887        4.3487805067        21.044051935638
  C        24.2257926228        4.0668710895        20.097838612638
  C        24.8549029745        5.1050713831        19.415717106938
  C        24.5037520683        6.4476757669        19.659785013538
  C        23.5355663370        6.7210680077        20.643209596138
  C        22.9016831620        5.6846693355        21.323737029438
  C        25.1112775027        7.5530006183        18.883650215738
  C        25.0820086757        7.5464001048        17.462179926938
  C        24.3773701791        6.5485029225        16.716512345138
  C        38.2985980305       31.9282458838        21.841779958838
  C        37.5579831797       30.8393941402        21.139847920338
  C        36.5936023566       31.1463940692        20.167538527238
  C        35.9644938077       30.1284381572        19.455977847638
  C        36.2844711767       28.7773137343        19.693759968638
  C        37.2181360660       28.4776953293        20.703787277138
  C        37.8512948398       29.4946854855        21.414649414738
  C        35.6752129277       27.6892619645        18.894308079038
  C        35.7163155970       27.7042675613        17.472657177838
  C        36.4311458717       28.7040256508        16.740060867238
  C        25.7056359126        8.6157566433        16.741936576038
  C        25.7114450753        8.6264785868        19.553906921438
  C        38.3309260161       31.9614609997       10.1600233411
  C        37.6145484953       30.8886190734       10.9097122477
  C        36.6826675276       31.1988481910       11.9121775365
  C        36.0732167572       30.1821703856       12.6454313440
  C        36.3807563348       28.8287922162       12.4002315022
  C        37.2936805379       28.5283919359       11.3705807739
  C        37.9050806776       29.5416441005       10.6385943572
  C        35.7657735980       27.7307483313       13.1820786348
  C        35.7623096107       27.7256464861       14.6045518076
  C        36.4517524613       28.7151214873       15.3736280130
  C        46.1353699675       26.6207491486       15.2815611350
  C        46.0879765895       26.5802205625       12.4736558942
  C        22.4612273771        3.2561142718       10.2577962498
  C        23.1554936475        4.3645642641       10.9806812139
  C        24.1573887202        4.0782002076       11.9217088793
  C        24.7856967111        5.1080814333       12.6177401168
  C        24.4322233113        6.4542469586       12.3959008041
  C        23.4534511176        6.7338044232       11.4233227174
  C        22.8204207807        5.7041929069       10.7277547266
  C        25.0639131266        7.5519638041       13.1700764561
  C        25.0584978863        7.5450046828       14.5929646612
  C        24.3642820815        6.5488714702       15.3498618822
  C        26.6206481252       17.8621827015        21.774197858338
  C        25.3147066863       17.9014878956        21.046616528238
  C        25.0529215343       18.8976004550        20.092551197438
  C        23.8404862495       18.9152249288        19.405594942338
  C        22.8520465836       17.9405457758        19.651720514238
  C        23.1103043440       16.9662644514        20.634391449438
  C        24.3253806768       16.9424839543        21.317872128938
  C        21.5782668799       17.9264515191        18.888177092738
  C        21.5785315825       17.9057487441        17.465635730938
  C        22.7841282210       17.7802812999        16.705499401738
  C        34.4409600757       17.1917527142        21.905844408238
  C        35.7313089308       17.1462219781        21.159363952238
  C        35.9334810487       16.1859749809        20.155928701538
  C        37.1141034028       16.1771345311        19.418978819738
  C        38.1246041687       17.1259964524        19.667992460138
  C        37.9250673546       18.0664954179        20.696247695638
  C        36.7411014331       18.0818955241        21.429197333338
  C        39.3794428970       17.1374809976        18.884230837038
  C        39.3764920850       17.1582470780        17.463021573038
  C        38.1704052535       17.2850649236        16.704401844638
  C        20.3319737501       17.9268026575        16.757001793738
  C        20.3534100246       17.9307014239        19.570458634438
  C        34.4829098120       17.2459933268       10.1773449510
  C        35.7829977885       17.1789585164       10.9051228814
  C        36.0029079214       16.1910632693       11.8765135439
  C        37.1874885646       16.1773647099       12.6069288867
  C        38.1806876336       17.1499801238       12.3825672811
  C        37.9679258908       18.1131491960       11.3792532899
  C        36.7803635421       18.1327111755       10.6531351397
  C        39.4268718488       17.1688901716       13.1780024154
  C        39.4007046143       17.1744738440       14.5984634527
  C        38.1815269092       17.2905232808       15.3378970081
  C        35.1220452153       26.6491510270       15.3042912947
  C        35.1788973270       26.6603695803       12.4948379747
  C        26.5740691286       17.8280205721       10.3263623097
  C        25.2588648191       17.8718376800       11.0325171297
  C        24.9950136055       18.8752561589       11.9770282620
  C        23.7771703284       18.9000478336       12.6508923107
  C        22.7934626986       17.9218476608       12.4031168123
  C        23.0516105056       16.9433999465       11.4260656845
  C        24.2704150836       16.9161996596       10.7509167221
  C        21.5296587831       17.9029484921       13.1758463277
  C        21.5535163656       17.8922340739       14.5974036953
  C        22.7717726845       17.7737225293       15.3392268174
  C        14.0471003644       17.8288767244       10.2889911445
  C        15.3516713692       17.8864180570       11.0137693427
  C        15.6080783296       18.8889130385       11.9622955091
  C        16.8171295799       18.9097390208       12.6551161714
  C        17.8043733209       17.9309125530       12.4218401209
  C        17.5527359716       16.9528153931       11.4410489171
  C        16.3431495096       16.9273397607       10.7498291996
  C        19.0733775201       17.9131289986       13.1910891590
  C        19.0719848110       17.9096650574       14.6136351324
  C        17.8648657611       17.8123243746       15.3749040871
  C        46.8073230660       17.2203382795       10.1595985168
  C        45.5200689511       17.1647580242       10.9086059869
  C        45.3134501701       16.1907475019       11.8973835099
  C        44.1338162624       16.1803337733       12.6365115513
  C        43.1327291564       17.1441848573       12.4075934526
  C        43.3368590184       18.0981602151       11.3926883216
  C        44.5170043654       18.1124562937       10.6547148446
  C        41.8803142332       17.1612726711       13.1951480794
  C        41.8843443670       17.1578301423       14.6166057452
  C        43.0925397119       17.2478139851       15.3770347927
  C        20.3187311738       17.9186828583       15.3221172360
  C        20.2977176996       17.8930991874       12.5090264693
  C        46.7860034354       17.2305678097        21.880602273738
  C        45.4817946674       17.1246581812        21.168032507338
  C        45.2630450380       16.1291340335        20.204033414938
  C        44.0748119897       16.1054780931        19.478315717138
  C        43.0769365415       17.0739907770        19.700712321238
  C        43.2851161819       18.0376938887        20.704814761938
  C        44.4745881991       18.0680581603        21.425181390238
  C        41.8325985499       17.1027156006        18.902201311738
  C        41.8602123445       17.1263467585        17.481739444738
  C        43.0810950078       17.2304127437        16.743383065438
  C        46.1532492425       26.6372113552        16.716112631438
  C        46.1625938186       26.6562045668        19.525740885738
  C        14.0459988494       17.8315355293        21.698294187138
  C        15.3671604363       17.9054525343        21.008118144038
  C        15.6414110137       18.9201664122        20.078932807638
  C        16.8705777857       18.9564262798        19.424259104738
  C        17.8535902546       17.9771931644        19.672667783038
  C        17.5861581384       16.9916317257        20.640300639238
  C        16.3591024229       16.9548405322        21.298590442038
  C        19.1208120776       17.9508203760        18.903472377438
  C        19.0968213344       17.9278119482        17.481887176438
  C        17.8769727107       17.8205103258        16.740932876138
  C        28.8129970299       14.0949258459       10.3951038047
  C        28.1995078023       12.9207579382       11.0821612127
  C        28.9270154987       12.1674978423       12.0154803398
  C        28.3272859490       11.0921306422       12.6663793893
  C        26.9860556851       10.7448776708       12.4066681387
  C        26.2798625419       11.4779278685       11.4362894017
  C        26.8770538767       12.5541640820       10.7848802347
  C        26.3176082820        9.6637460598       13.1671529148
  C        26.3083656579        9.6886292191       14.5881597293
  C        26.8156376250       10.8000579905       15.3334026086
  C        32.1804365512       21.2437942743       10.1439825194
  C        32.7749978624       22.4089779103       10.8658251290
  C        32.0223797088       23.0926119361       11.8333011200
  C        32.5909993780       24.1329233338       12.5622177203
  C        33.9286087802       24.5175187453       12.3462126995
  C        34.6642353212       23.8520323598       11.3473770766
  C        34.0976208136       22.8068781889       10.6196744191
  C        34.5548687637       25.5927818088       13.1498932021
  C        34.5334613287       25.5666343154       14.5716705839
  C        34.0136568305       24.4544674004       15.3066031321
  C        25.6980557284        8.6113346297       15.3072650056
  C        25.6786233124        8.6146036361       12.4936836178
  C        32.0762601780       21.2019242999        21.864453257538
  C        32.6460348984       22.3640755678        21.118916852838
  C        31.9079979278       23.0238790177        20.123951904938
  C        32.4814939540       24.0634594098        19.393233293338
  C        33.8065155705       24.4753418147        19.639782987238
  C        34.5254520158       23.8301374059        20.664362327638
  C        33.9576500965       22.7862083978        21.389183659838
  C        34.4482177351       25.5609653810        18.861057562138
  C        34.4771218670       25.5512956248        17.439132089438
  C        33.9851986136       24.4480601171        16.672906792738
  C        40.6240329269       17.1337657575        16.756648513838
  C        40.6013366701       17.1262986998        19.565829859438
  C        28.7489636425       14.0679205447        21.808319854438
  C        28.1389747710       12.9214580235        21.069802942838
  C        28.8743026594       12.2296441030        20.095303627538
  C        28.2955597152       11.1716678023        19.398157349738
  C        26.9649823975       10.7800945595        19.649077463638
  C        26.2465623917       11.4604810993        20.650037162738
  C        26.8240385033       12.5183101506        21.349724871938
  C        26.3234816871        9.6891773554        18.876452293338
  C        26.3120266504        9.7022249446        17.454480670838
  C        26.8143579965       10.8082613319        16.699234884338
  C        18.1354195305        3.1810558600       10.3171540847
  C        17.4063352199        4.2782680743       11.0159144855
  C        16.3904381538        3.9999297372       11.9432619469
  C        15.7427204726        5.0399400772       12.6066981645
  C        16.0948272714        6.3836498504       12.3671718750
  C        17.0841852997        6.6531464604       11.4033721898
  C        17.7332940857        5.6157867743       10.7383643561
  C        15.4702812484        7.4912717638       13.1301395817
  C        15.4856695936        7.4906038951       14.5518527818
  C        16.1870904464        6.4969021213       15.3050349510
  C        42.9458475797       31.8595852575       10.0728364640
  C        43.6461363440       30.7718922062       10.8168655481
  C        44.5915443423       31.0932300357       11.8030478108
  C        45.1971423992       30.0877051439       12.5508365101
  C        44.8711524228       28.7345837513       12.3356610700
  C        43.9455340674       28.4202476807       11.3222454099
  C        43.3368366965       29.4253606446       10.5740683485
  C        45.4885530264       27.6552379867       13.1389262402
  C        45.4927868590       27.6809410053       14.5606223002
  C        44.8055640685       28.6888789080       15.3072723712
  C        14.8564893142        8.5629554752       15.2642364799
  C        14.8752879651        8.5632086012       12.4515571092
  C        42.9465097487       31.9616901895        21.798794424338
  C        43.6918862070       30.8855408990        21.085464743838
  C        44.6562180892       31.1914567025        20.112906024838
  C        45.2777816118       30.1718783142        19.395199081338
  C        44.9541828979       28.8215437027        19.632999221038
  C        44.0210211882       28.5238562795        20.644079121838
  C        43.3927194135       29.5406251746        21.356223472838
  C        45.5631754079       27.7241527917        18.847706582938
  C        45.5332852945       27.7173692480        17.426409851838
  C        44.8269504143       28.7075922567        16.673456815438
  C        35.0958662802       26.6400736602        16.739361411338
  C        35.0588894438       26.6169837265        19.549725982738
  C        18.1487163247        3.2470443833        21.696296000538
  C        17.4300370013        4.3438244378        20.987153863038
  C        16.4147841473        4.0525793531        20.063608486138
  C        15.7664662473        5.0832326242        19.388284384038
  C        16.1212989017        6.4284512129        19.610887407038
  C        17.1127974566        6.7118116465        20.568026114838
  C        17.7604917076        5.6828786579        21.247737291138
  C        15.4907732067        7.5241576127        18.838488631938
  C        15.4965158690        7.5074026992        17.417360920938
  C        16.1933652902        6.5057783730        16.670639864738
  H        10.6723576822       12.4654022187        19.894768150838
  H        11.6946234542       10.5505741320        18.652901964338
  H        15.3921253214       11.1692839802        20.761364253738
  H        14.3516419502       13.0720386743        22.006514940438
  H        13.3761554880       11.6310951543        17.191131049238
  H        50.3229027443       22.7483874669        19.976522289538
  H        49.3197609739       24.6229035129        18.670544581638
  H        45.6423973742       24.1613568868        20.853641428038
  H        46.6633482157       22.2903254650        22.161851418338
  H        47.6298049238       23.5759065134        17.236053677538
  H        14.8725049122        8.5884555502        20.598362326538
  H        50.2871000687       22.7025196359       12.0605884424
  H        49.2691026365       24.5754053861       13.3606231640
  H        45.6106895196       24.1094022668       11.1459053312
  H        46.6528901502       22.2540364334        9.8316399645
  H        47.6077059618       23.5518080473       14.7969018009
  H        40.6649467340       17.1509925929       11.4263487755
  H        48.6871718559       14.0949652892        23.789856785138
  H        10.6813517572       12.4663195839       12.0929364622
  H        11.6896589963       10.5243567806       13.2965947830
  H        15.3940944647       11.1596796474       11.2063332012
  H        14.3655896895       13.0881023585        9.9911258447
  H        13.3758553842       11.6220744779       14.7531250473
  H        47.9302527306       14.2184951494        9.7108669161
  H        47.7801603445       14.3740202898        22.485114112338
  H        49.0851491973       18.5527854260       10.8676824062
  H        10.4162386910       14.1342405201        7.9986794667
  H        24.4847507701        3.0277923473        19.907040328738
  H        25.6276035576        4.8860064006        18.681984213538
  H        23.2570886617        7.7546261511        20.838200083338
  H        22.1320242763        5.8868017180        22.064633461538
  H        23.8156505578        5.7923775227        17.257214987638
  H        36.3621332261       32.1905744872        19.970934549838
  H        35.2176797314       30.3713209110        18.703224162338
  H        37.4733191892       27.4375147834        20.895673611438
  H        38.5979087987       29.2700366493        22.172766276138
  H        36.9940876884       29.4524978256        17.290038915538
  H        25.7477412560        8.6090331867        20.641676093138
  H        36.4552876505       32.2433006437       12.1133755198
  H        35.3439326096       30.4295518221       13.4136921153
  H        37.5449629344       27.4880549464       11.1747803158
  H        38.6307155140       29.3136446533        9.8615978374
  H        37.0313767124       29.4718870159       14.8527070456
  H        46.1095211236       26.5876813243       11.3856199449
  H        44.6683476619       35.1162372289        23.803789432638
  H        24.4348304536        3.0399041484       12.0889288410
  H        25.5662570971        4.8787979590       13.3400428015
  H        23.1688820983        7.7684097725       11.2427019537
  H        22.0489945358        5.9176327706        9.9914487722
  H        23.7920274450        5.7935787926       14.8190560508
  H        44.9539997367       34.3905709988        9.6952981352
  H        44.9020203899       34.2068931641        22.480475857538
  H        40.6667189392       33.2095978492       10.8533925074
  H        23.1503869786        1.9580704523        8.0053075742
  H        25.8105685480       19.6557088446        19.907428744638
  H        23.6431089193       19.6938635343        18.671855263638
  H        22.3594904680       16.2040877294        20.832941653838
  H        24.5352114766       16.1764455257        22.060759076338
  H        23.7251916798       17.6574283721        17.233875303238
  H        35.1498486423       15.4571839039        19.963290706738
  H        37.2706358685       15.4252466479        18.648612768338
  H        38.6981213997       18.8067948273        20.891783560538
  H        36.5697224059       18.8217600801        22.207634620938
  H        37.2302891508       17.4078362753        17.234366340438
  H        20.3603558453       17.9703183829        20.658349204938
  H        35.2283695366       15.4481594158       12.0519697269
  H        37.3581701113       15.4092864928       13.3580949716
  H        38.7301053222       18.8693421108       11.2028493689
  H        36.5927464546       18.8926312305        9.8982829783
  H        37.2499571784       17.4169188902       14.7935799591
  H        35.1612725648       26.6852664225       11.4068982886
  H        28.5009308906       21.0867019666        23.956799037538
  H        25.7573268686       19.6279780971       12.1648632543
  H        23.5726142755       19.6820164070       13.3789789437
  H        22.3003898102       16.1813066067       11.2289898647
  H        24.4854804753       16.1491268478       10.0108286816
  H        23.7033292483       17.6464818150       14.7958698465
  H        29.0008308678       21.7215007662        9.7637333875
  H        29.1637748636       21.7394657211        22.612274032138
  H        32.1518100509       18.5769517063       10.9132593819
  H        27.3967368822       19.0698643954        8.0830193594
  H        14.8494077366       19.6475419277       12.1412827343
  H        17.0120146144       19.6935369459       13.3839600983
  H        18.3043881403       16.1892215549       11.2515393784
  H        16.1377490339       16.1587479997       10.0085105014
  H        16.9221642329       17.6981316786       14.8477029947
  H        46.0941029855       15.4558506509       12.0792872557
  H        43.9722989225       15.4174117397       13.3948562586
  H        42.5711688829       18.8499895398       11.2131333714
  H        44.6927314058       18.8627436601        9.8874479836
  H        44.0350233544       17.3623975839       14.8492342992
  H        20.2919535429       17.9237237387       11.4209073134
  H        46.0401539045       15.3897371518        20.024288905538
  H        43.9072764869       15.3341974969        18.729693820738
  H        42.5186082780       18.7890679823        20.882676234438
  H        44.6584538091       18.8316392494        22.176930906438
  H        44.0148369811       17.3305139849        17.289112803938
  H        46.1996398110       26.6828090836        20.613177831138
  H        52.7412687180       21.0626110909        8.1946862549
  H        14.8814065124       19.6742154546        19.886354966938
  H        17.0821221520       19.7464560334        18.706894195538
  H        18.3363016722       16.2292369329        20.840192051338
  H        16.1377749347       16.1808568962        22.029438946538
  H        16.9433089903       17.7126466268        17.284716258138
  H        52.3226182485       21.6733291418        22.283981788138
  H        52.0131724646       21.7020164128        9.4956122131
  H        49.0678890076       18.6076857132        21.193757947738
  H        13.2479395133       19.0159658704        23.967107325738
  H        29.9615576728       12.4378248177       12.2148896109
  H        28.8928002409       10.5077070450       13.3889863787
  H        25.2434584755       11.2197577447       11.2286120737
  H        26.3292456890       13.1410537834       10.0517385639
  H        27.1793731213       11.6682927898       14.7923049213
  H        30.9948493604       22.7835197629       12.0091784999
  H        32.0012579203       24.6622071869       13.3075044497
  H        35.6995877706       24.1387470598       11.1745694602
  H        34.6714616836       22.2684846987        9.8688416938
  H        33.6603405108       23.5863215834       14.7576289540
  H        25.7059614649        8.5967828387       11.4055731076
  H        30.8859682761       22.7058775308        19.929978090738
  H        31.9012451289       24.5749179568        18.628174936638
  H        35.5507651572       24.1358785898        20.862231392638
  H        34.5200234556       22.2675616994        22.161912095038
  H        33.6100998945       23.5745724209        17.198353004538
  H        40.5926613805       17.0818106731        20.653214479638
  H        32.5115730391       14.1403822963        8.2437130408
  H        29.9002221336       12.5351725570        19.902580200538
  H        28.8740424865       10.6307156126        18.652386699538
  H        25.2168367052       11.1715490446        20.850349206138
  H        26.2659949908       13.0589023666        22.110534371538
  H        27.1760142662       11.6830138119        17.231752371938
  H        33.3101949503       14.2251326791        22.457279171838
  H        33.4115473083       14.4027089183        9.5966899721
  H        32.1037678228       18.4916892188        21.162088941038
  H        30.2216494550       14.1846043599        8.0749272594
  H        16.1183115307        2.9634381416       12.1296300623
  H        14.9532488066        4.8206021005       13.3223457833
  H        17.3667811179        7.6860015780       11.2103871543
  H        18.5154370886        5.8184700387       10.0106364964
  H        16.7538311503        5.7396965990       14.7715411163
  H        44.8275832722       32.1403305135       11.9774735533
  H        45.9368976530       30.3414872818       13.3068804605
  H        43.6832479161       27.3781310741       11.1517812613
  H        42.6005120659       29.1900092941        9.8091249469
  H        44.2302987615       29.4367237817       14.7689807813
  H        14.8516600838        8.5465124253       11.3633332860
  H        44.8996317703       32.2341499879        19.921351817838
  H        46.0245214714       30.4131584274        18.641810413938
  H        43.7643223867       27.4840967670        20.835846948338
  H        42.6464902222       29.3178142066        22.114931830038
  H        44.2684829348       29.4705101328        17.208040012138
  H        35.0100767597       26.6288692432        20.636987899038
  H        36.6052932776       35.1340942785        8.1806037889
  H        16.1435638586        3.0130219438        19.894010891638
  H        14.9740706055        4.8564379961        18.678264918238
  H        17.3965202327        7.7472485405        20.744755450938
  H        18.5435086798        5.8933612892        21.972339895038
  H        16.7648820481        5.7555973480        17.209068802538
  H        36.2788839007       34.4823038452        22.262904638038
  H        36.3812008290       34.2089462012        9.4993841789
  H        40.5796265581       33.2022040814        21.143598035838
  H        17.4710437240        1.9474979933        23.963843868738
  H        29.1784475702       19.3045857773       12.4898393260
  H        29.5067315047       19.5044159358        19.576229571338
  H        31.8501152110       15.8346764428        19.583891017938
  H        31.4657717634       15.5922225790       12.5108867884
  H        28.2494856667       17.7373407440       14.4350705540
  H        29.8602559011       15.3907962330       14.5202085850
  H        31.2070107313       19.7927562689        17.542666012438
  H        32.8614030791       17.5031266782        17.587128639138
  H        28.9738631112       16.6626480053        17.037979974638
  H        32.1337030434       18.3784878220       15.0207802113
  H        18.8530485390        0.8689438412       12.3351058834
  H        40.5281783245       35.2288314618        19.941801869838
  H        42.3243791769       34.4191076241        19.580073800238
  H        22.0874688968        0.6920247295       12.3516535521
  H        11.5968066391       18.7131404420       12.3826964856
  H        52.2650398397       18.4313347833        19.666952314138
  H        49.2552976197       16.4770176742        19.574270747338
  H        10.1510098333       15.7981476872       12.2924857441
  H        50.8502749565       17.6924150392        19.944007457538
  H        10.0466043632       17.3944874416       12.0519537786
  H        20.2142977992        0.0021581301       12.0420356480
  H        39.1838853459       36.1244517241        19.676262750038
 Ni        30.9419636407       17.8243011658        18.984480452638
 Ni        31.3242108906       16.4689482607        16.151019003738