     573
 i =      162, E =     -4762.8164210406
  C        11.8584406445       14.0534361882        21.731388983838
  C        12.4558448657       12.8903428890        21.013209074338
  C        11.7044660465       12.1721137813        20.070771363738
  C        12.2807957559       11.1098904759        19.378400245838
  C        13.6210713734       10.7393747312        19.606794173038
  C        14.3538298594       11.4421176164        20.581201765338
  C        13.7809649372       12.5070690316        21.272762471738
  C        14.2606571990        9.6487686984        18.833371550138
  C        14.2560440944        9.6567359897        17.411658039438
  C        13.7429960660       10.7588801892        16.657695986238
  C        49.1264350033       21.2334325289        21.869570522038
  C        48.5495892075       22.4011770575        21.142476953638
  C        49.2996335306       23.0685174209        20.161478838038
  C        48.7326740651       24.1075788514        19.428235279138
  C        47.4021024419       24.5091747642        19.656808017638
  C        46.6711228775       23.8602574721        20.670281048338
  C        47.2335833226       22.8153984106        21.399685328038
  C        46.7719381503       25.5868723594        18.859498680138
  C        46.7610859654       25.5572895230        17.437737977538
  C        47.2610121388       24.4421900686        16.694248065238
  C        14.8599540079        8.5703737086        16.698390059838
  C        14.8913924554        8.5967604975        19.510007348238
  C        49.1128616887       21.2034693734       10.1453645523
  C        48.5274766232       22.3647528931       10.8724266356
  C        49.2667328279       23.0255809223       11.8652704330
  C        48.6903511916       24.0600897471       12.5967199595
  C        47.3598583667       24.4567067711       12.3585918089
  C        46.6394111719       23.8116542566       11.3351784116
  C        47.2129932337       22.7757711200       10.6033888297
  C        46.7214507716       25.5316914411       13.1496105993
  C        46.7333149827       25.5280953660       14.5713086609
  C        47.2487539235       24.4288880434       15.3276950698
  C        40.6163108260       17.0797297878       15.3127259111
  C        40.6315055676       17.0933255477       12.5028719108
  C        11.8826819210       14.0863130168       10.2854439887
  C        12.4717111034       12.9101850093       10.9893635561
  C        11.7144405630       12.1777575029       11.9162922124
  C        12.2808831624       11.0952446352       12.5847326191
  C        13.6193519879       10.7206671788       12.3522063576
  C        14.3569126533       11.4352517249       11.3903338904
  C        13.7916466931       12.5164771779       10.7176148912
  C        14.2530039354        9.6240427556       13.1227220972
  C        14.2520014165        9.6442258290       14.5445687844
  C        13.7423381258       10.7532666099       15.2916485619
  C        22.5133777500        3.2446466772        21.742411250238
  C        23.2314804564        4.3483973322        21.042484841838
  C        24.2284867114        4.0646025384        20.097197665838
  C        24.8599485175        5.1011843205        19.414438074738
  C        24.5107913580        6.4447828300        19.656250481738
  C        23.5418461721        6.7200883379        20.638574880738
  C        22.9057102405        5.6852144459        21.319879194638
  C        25.1211350946        7.5486942224        18.879227379938
  C        25.0940142892        7.5407824695        17.457476576438
  C        24.3887897097        6.5431257585        16.712184055938
  C        38.2971947731       31.9278844175        21.842070992938
  C        37.5534249691       30.8403867628        21.141537910038
  C        36.5856751719       31.1497397684        20.173096740638
  C        35.9522982404       30.1337310470        19.462529015038
  C        36.2710968276       28.7815355789        19.696353353538
  C        37.2080870277       28.4795801572        20.702831943538
  C        37.8453072108       29.4946172214        21.413186623238
  C        35.6584583774       27.6953782940        18.896239689438
  C        35.6963214095       27.7127662014        17.474401282238
  C        36.4082609493       28.7146264001        16.742027814338
  C        25.7197443331        8.6087605235        16.736536224338
  C        25.7211604432        8.6229474143        19.548361834738
  C        38.3301103709       31.9612444756       10.1602394745
  C        37.6116146167       30.8901569686       10.9099299224
  C        36.6784011769       31.2031387042       11.9105397550
  C        36.0653440283       30.1886907132       12.6437904743
  C        36.3703377866       28.8341672269       12.4011586158
  C        37.2848262888       28.5311357825       11.3734416228
  C        37.8995976365       29.5421435208       10.6410300275
  C        35.7519954894       27.7379171697       13.1831664316
  C        35.7440229072       27.7346547311       14.6058479376
  C        36.4298819207       28.7260140383       15.3756184209
  C        46.1353620478       26.6207594216       15.2814383736
  C        46.0873864998       26.5799741609       12.4735429676
  C        22.4616014957        3.2553194770       10.2569365984
  C        23.1580279266        4.3628549898       10.9789223381
  C        24.1626558664        4.0743832990       11.9162738670
  C        24.7937140420        5.1028651793       12.6116608970
  C        24.4400539433        6.4492044125       12.3922168776
  C        23.4583558390        6.7310040370       11.4233895672
  C        22.8227836472        5.7027265352       10.7282977036
  C        25.0745510219        7.5453934483       13.1656491647
  C        25.0709552103        7.5381953000       14.5883857501
  C        24.3759388988        6.5428974072       15.3455432309
  C        26.5596016448       17.8262410335        21.780130828438
  C        25.2587369788       17.8817806765        21.049916081038
  C        24.9951655078       18.9092487910        20.130936016838
  C        23.7869427820       18.9388623566        19.438237976738
  C        22.8102797633       17.9447275616        19.645596467438
  C        23.0694778696       16.9386734354        20.594525466438
  C        24.2792254049       16.9042209735        21.285239551638
  C        21.5435165405       17.9425738132        18.874876579938
  C        21.5532484639       17.9426023092        17.453570843138
  C        22.7647392433       17.8311411616        16.700797396238
  C        34.4178751305       17.2221669346        21.897486694138
  C        35.7086483176       17.1541703832        21.152335046838
  C        35.9114021852       16.1795055411        20.162575911038
  C        37.0950439807       16.1554300336        19.429363838738
  C        38.1094500795       17.1042048496        19.665094853638
  C        37.9091277171       18.0589870838        20.680638882438
  C        36.7236025174       18.0884470063        21.411234948838
  C        39.3654934038       17.1051296534        18.879505068338
  C        39.3606149412       17.1104466201        17.457301106638
  C        38.1535796510       17.2296704417        16.699051316738
  C        20.3111099459       17.9660400626        16.738881362138
  C        20.3173061218       17.9329886145        19.551651641738
  C        34.4384316238       17.2371473113       10.1871625428
  C        35.7409700444       17.1320422504       10.9076264445
  C        35.9396928816       16.1571419035       11.8966724935
  C        37.1304061539       16.1230092648       12.6188463872
  C        38.1507967694       17.0629211634       12.3733120268
  C        37.9577340260       18.0100346758       11.3498265002
  C        36.7669328051       18.0490775384       10.6305096464
  C        39.3997136530       17.0786843885       13.1680690648
  C        39.3783172265       17.0978049282       14.5897950988
  C        38.1618286581       17.2218545638       15.3325000611
  C        35.1040438316       26.6575996398       15.3054497996
  C        35.1680557989       26.6660082784       12.4956771040
  C        26.5742080881       17.8242360951       10.3327244336
  C        25.2613169388       17.8791871691       11.0390744690
  C        24.9972495834       18.9002773684       11.9647234620
  C        23.7773805697       18.9380095001       12.6341381061
  C        22.7949055290       17.9549430677       12.4001646582
  C        23.0543667533       16.9588611292       11.4422953968
  C        24.2744524185       16.9192594308       10.7707100008
  C        21.5280566864       17.9476267003       13.1661960799
  C        21.5447684299       17.9425361911       14.5870181096
  C        22.7599159550       17.8293914014       15.3347964688
  C        14.0462935105       17.8330946168       10.2833288593
  C        15.3541593529       17.9014734089       10.9992134075
  C        15.6135770099       18.9208613889       11.9281971036
  C        16.8246681791       18.9523596241       12.6159920945
  C        17.8077630957       17.9670198464       12.3961099203
  C        17.5544293257       16.9728681696       11.4327641928
  C        16.3428906712       16.9373274237       10.7459157423
  C        19.0736350466       17.9563211609       13.1682912080
  C        19.0636932944       17.9553314598       14.5901129070
  C        17.8516408664       17.8571073535       15.3435121190
  C        46.8020739947       17.2166083389       10.1582863336
  C        45.5097483872       17.1466655824       10.9012038295
  C        45.3083035177       16.1657759129       11.8850181274
  C        44.1249719312       16.1364578943       12.6185761039
  C        43.1109779576       17.0876437651       12.3914038168
  C        43.3095525116       18.0478385051       11.3804587881
  C        44.4939257709       18.0812622563       10.6477551497
  C        41.8566496622       17.0890779589       13.1804612762
  C        41.8628402635       17.0933816281       14.6029921701
  C        43.0713954245       17.1945776447       15.3616005858
  C        20.3062144837       17.9656056456       15.3048947338
  C        20.3004341446       17.9345553425       12.4923969089
  C        46.7824737947       17.2316289025        21.876755794538
  C        45.4787631042       17.1247596399        21.159676740538
  C        45.2597297293       16.1241534857        20.200245359338
  C        44.0709093261       16.0936379185        19.474700062538
  C        43.0692813294       17.0606086193        19.689971233738
  C        43.2792302397       18.0317072950        20.687255828238
  C        44.4691857896       18.0685101876        21.408167774338
  C        41.8212016548       17.0778250416        18.893264619838
  C        41.8447036464       17.0862367060        17.471530837938
  C        43.0629713668       17.1880343533        16.728467955538
  C        46.1531420329       26.6372011145        16.715981703438
  C        46.1619421325       26.6559662863        19.525624134138
  C        14.0389031114       17.8281760213        21.695924126238
  C        15.3522387347       17.8978503686        20.994551396538
  C        15.6230253185       18.9252085414        20.078896772738
  C        16.8467005649       18.9645515398        19.415744004638
  C        17.8233901179       17.9753908404        19.644400431438
  C        17.5578761622       16.9729190077        20.594302682238
  C        16.3364659899       16.9335151854        21.261516285838
  C        19.0899102986       17.9610724009        18.877839065438
  C        19.0723451363       17.9573164055        17.456849697538
  C        17.8558817947       17.8578195742        16.709605685538
  C        28.8042752905       14.0789303085       10.3597911642
  C        28.2003167503       12.9058676617       11.0539845145
  C        28.9335899594       12.1575645307       11.9868462774
  C        28.3370481374       11.0860017965       12.6472800421
  C        26.9949577265       10.7363735501       12.3955501639
  C        26.2835305841       11.4638812822       11.4244454980
  C        26.8763283041       12.5375193757       10.7652344648
  C        26.3299834289        9.6559105340       13.1603532383
  C        26.3238066032        9.6798949789       14.5813439170
  C        26.8336187957       10.7905399584       15.3255215624
  C        32.1780505722       21.2437892464       10.1466285420
  C        32.7716100861       22.4106137264       10.8656870620
  C        32.0161402230       23.0962633854       11.8296238273
  C        32.5823657238       24.1370850632       12.5592565357
  C        33.9205001857       24.5216452852       12.3462935044
  C        34.6588554979       23.8548551966       11.3503993639
  C        34.0947363835       22.8082276502       10.6226413422
  C        34.5434894808       25.5986085807       13.1504135640
  C        34.5192369842       25.5732234210       14.5723066489
  C        34.0030334812       24.4590352488       15.3066774097
  C        25.7126381582        8.6036757574       15.3017599107
  C        25.6888592631        8.6072618589       12.4882565709
  C        32.0730331185       21.2035768230        21.870765573238
  C        32.6430321454       22.3642234703        21.123216974338
  C        31.9096055980       23.0039225383        20.112226560038
  C        32.4786338420       24.0466191510        19.382723947638
  C        33.7951149341       24.4778218615        19.642187039638
  C        34.5097342663       23.8492357814        20.680358004838
  C        33.9456663967       22.8044212602        21.406855352338
  C        34.4335248825       25.5648566863        18.862612397438
  C        34.4619244454       25.5564634191        17.440167709938
  C        33.9747121711       24.4515075218        16.673077988538
  C        40.6069293666       17.0813765167        16.747892958838
  C        40.5898761967       17.1047454000        19.558541158938
  C        28.7449081643       14.0679855725        21.809542165538
  C        28.1372667734       12.9221328746        21.067675899138
  C        28.8720874332       12.2425385139        20.083720260038
  C        28.2975825017       11.1828826439        19.385346791938
  C        26.9721097420       10.7779518764        19.643029532038
  C        26.2544842521       11.4478375964        20.652052048938
  C        26.8274784510       12.5066985318        21.353826596638
  C        26.3346321047        9.6848855320        18.870334056138
  C        26.3259378147        9.6958859176        17.448183543838
  C        26.8308148698       10.7996310780        16.691207457338
  C        18.1354525454        3.1808401392       10.3170333187
  C        17.4060014730        4.2780838843       11.0157025500
  C        16.3901859839        3.9995571540       11.9430435684
  C        15.7422747948        5.0394172248       12.6065737977
  C        16.0941064643        6.3831662183       12.3670429020
  C        17.0835795353        6.6528686956       11.4034302855
  C        17.7328536100        5.6156375961       10.7383570532
  C        15.4696323710        7.4907937707       13.1301019750
  C        15.4850506860        7.4902512801       14.5518183152
  C        16.1866401556        6.4966641188       15.3049908296
  C        42.9457285841       31.8594841127       10.0728132840
  C        43.6460183617       30.7717574759       10.8167701629
  C        44.5917601235       31.0930436092       11.8026466195
  C        45.1974150787       30.0874729787       12.5503136760
  C        44.8707066971       28.7344521198       12.3356225051
  C        43.9446201311       28.4201324446       11.3226463275
  C        43.3358642937       29.4253092298       10.5745945746
  C        45.4882996416       27.6551594205       13.1388208283
  C        45.4926185389       27.6808603995       14.5605143593
  C        44.8056140716       28.6889756397       15.3071233106
  C        14.8560906484        8.5627739222       15.2641532303
  C        14.8741579853        8.5624230589       12.4514915564
  C        42.9463694967       31.9615697989        21.798761005638
  C        43.6915190934       30.8854156457        21.085230829238
  C        44.6563699939       31.1913063081        20.113179302338
  C        45.2778613175       30.1717042450        19.395445041738
  C        44.9537224522       28.8214233992        19.632793029438
  C        44.0199054859       28.5237608227        20.643255836238
  C        43.3916769358       29.5405457901        21.355442249838
  C        45.5627921456       27.7240247404        18.847554851038
  C        45.5331700564       27.7173631092        17.426258256238
  C        44.8269209305       28.7076430933        16.673306706938
  C        35.0770937489       26.6479055619        16.740764941638
  C        35.0436816001       26.6218412776        19.550903696538
  C        18.1486199719        3.2468189915        21.696418881838
  C        17.4298985327        4.3436956235        20.987131103138
  C        16.4145540389        4.0523697154        20.063744834138
  C        15.7661412287        5.0829496788        19.388346388638
  C        16.1208709949        6.4281877505        19.610900689138
  C        17.1123878680        6.7116353600        20.567992596738
  C        17.7601701022        5.6827638673        21.247745230738
  C        15.4903035246        7.5238676412        18.838434995638
  C        15.4962135897        7.5072866224        17.417287931238
  C        16.1929224283        6.5055387825        16.670598833938
  H        10.6725734629       12.4667475984        19.893192619138
  H        11.6946703251       10.5519185929        18.651336250738
  H        15.3905439067       11.1668022056        20.763674813738
  H        14.3500640489       13.0695111364        22.009078702838
  H        13.3760672451       11.6310714387        17.190949517638
  H        50.3223576900       22.7485272419        19.976779709938
  H        49.3191223469       24.6228608301        18.670645185138
  H        45.6415891441       24.1609389016        20.853368991738
  H        46.6624891646       22.2901360697        22.161709160138
  H        47.6294145763       23.5757465894        17.235917562938
  H        14.8716116381        8.5878827020        20.598313834838
  H        50.2868191005       22.7028447816       12.0601231490
  H        49.2687119544       24.5756382881       13.3601821119
  H        45.6099208020       24.1086974004       11.1462573596
  H        46.6520426693       22.2534765635        9.8320046122
  H        47.6074085578       23.5517058715       14.7968183211
  H        40.6371597054       17.0565063430       11.4151385946
  H        48.6868562245       14.0950096820        23.789745024538
  H        10.6812386721       12.4674321919       12.0942793592
  H        11.6892124317       10.5254442381       13.2980010907
  H        15.3919841461       11.1565470845       11.2036294127
  H        14.3637137831       13.0850662266        9.9882630736
  H        13.3755165124       11.6218835100       14.7530199601
  H        47.9300856404       14.2177175665        9.7108839504
  H        47.7797524409       14.3729750974        22.484793682738
  H        49.0820410014       18.5519822432       10.8669507582
  H        10.4153878785       14.1343504969        7.9987706696
  H        24.4864218845        3.0250213350        19.907668855638
  H        25.6330673315        4.8796786769        18.681855009638
  H        23.2642137343        7.7541191834        20.832337623338
  H        22.1357401856        5.8895546021        22.059903568338
  H        23.8263087931        5.7878166330        17.253256629538
  H        36.3547133102       32.1944088214        19.978606119738
  H        35.2029641717       30.3790486175        18.713079141138
  H        37.4625316456       27.4387776085        20.892333181338
  H        38.5940183071       29.2672370484        22.168443154938
  H        36.9695377204       29.4642512311        17.292118442838
  H        25.7561149017        8.6068059440        20.636208146838
  H        36.4526330298       32.2482099605       12.1102385763
  H        35.3349109833       30.4387445268       13.4100774412
  H        37.5344373509       27.4900839206       11.1793086285
  H        38.6259087441       29.3112776622        9.8654916873
  H        37.0085927891       29.4840246310       14.8555742744
  H        46.1086039130       26.5872853660       11.3855012482
  H        44.6682675510       35.1161044431        23.803755219338
  H        24.4396122443        3.0356002286       12.0811705743
  H        25.5764929143        4.8724723623       13.3312097336
  H        23.1740334410        7.7660882821       11.2451795410
  H        22.0491653241        5.9171580167        9.9945755873
  H        23.8029790692        5.7880181159       14.8148907670
  H        44.9537258826       34.3902707488        9.6950596016
  H        44.9017510535       34.2067876152        22.480384461038
  H        40.6658767364       33.2089630860       10.8530925744
  H        23.1506711264        1.9575507941        8.0050174226
  H        25.7461365870       19.6812235846        19.978344152938
  H        23.5826528283       19.7405110426        18.731636351838
  H        22.3240720480       16.1634012125        20.759686815238
  H        24.4942438369       16.1166008002        22.003715953138
  H        23.7018558518       17.7119770955        17.236936520538
  H        35.1277519187       15.4490895045        19.975841799338
  H        37.2491191502       15.3915770608        18.670332929438
  H        38.6828417958       18.8007953111        20.867684143138
  H        36.5543215847       18.8404409918        22.178483672938
  H        37.2143036006       17.3590568474        17.229011017838
  H        20.3184652098       17.9549136254        20.639954424738
  H        35.1424960074       15.4455447588       12.0997044030
  H        37.2813325931       15.3639721052       13.3833203733
  H        38.7378413188       18.7427486163       11.1539163335
  H        36.5979809995       18.8000285040        9.8625457332
  H        37.2289597425       17.3450937135       14.7898767720
  H        35.1535189079       26.6892518805       11.4076509315
  H        28.5069057867       21.0929026976        23.979566833138
  H        25.7601033563       19.6569034742       12.1357098214
  H        23.5672221322       19.7348242447       13.3445697321
  H        22.3026077364       16.1942747752       11.2574408989
  H        24.4918098163       16.1402871367       10.0437831801
  H        23.6931182273       17.7057080114       14.7934288451
  H        28.9981518304       21.7196664667        9.7716876192
  H        29.1401972411       21.7472539868        22.596066610238
  H        32.1162784211       18.5778125868       10.9706975218
  H        27.3442938460       19.0769003419        8.0890267789
  H        14.8550581105       19.6820434257       12.0963857202
  H        17.0235635773       19.7470337968       13.3318733024
  H        18.3049460390       16.2053123116       11.2553053478
  H        16.1330492392       16.1571038268       10.0181340602
  H        16.9120185151       17.7475004615       14.8099960533
  H        46.0964777391       15.4393379190       12.0684404486
  H        43.9715470289       15.3676850699       13.3727631333
  H        42.5356205396       18.7908572154       11.1992414814
  H        44.6613344731       18.8376253259        9.8844110706
  H        44.0127785062       17.3090859222       14.8318234214
  H        20.3002233759       17.9590304532       11.4041378358
  H        46.0368037539       15.3837104911        20.024487383538
  H        43.9057228351       15.3161252788        18.731982902238
  H        42.5124975532       18.7838061537        20.861321424138
  H        44.6500610667       18.8375882114        22.155157093738
  H        43.9979440258       17.2961909283        17.270593902838
  H        46.1986141901       26.6824567084        20.613075623538
  H        52.7409847305       21.0625762726        8.1945748670
  H        14.8654064642       19.6862792169        19.905970223638
  H        17.0599685913       19.7645570599        18.710068912638
  H        18.3052451250       16.2029082959        20.774124918838
  H        16.1135827322       16.1497653601        21.981410041938
  H        16.9193965517       17.7487131280        17.248406244338
  H        52.3218120061       21.6733989267        22.284716206538
  H        52.0131488059       21.7022532838        9.4954856074
  H        49.0662418640       18.6076803549        21.194133908138
  H        13.2468650215       19.0169141523        23.965570642738
  H        29.9695186217       12.4272877402       12.1802560613
  H        28.9069093740       10.5062113400       13.3702010430
  H        25.2466588250       11.2031670315       11.2224209814
  H        26.3243763270       13.1212476679       10.0326276220
  H        27.2008702735       11.6569976920       14.7837511073
  H        30.9872816167       22.7883351224       11.9999566365
  H        31.9910750675       24.6674364766       13.3025257255
  H        35.6946616070       24.1414150715       11.1801643892
  H        34.6712302324       22.2685380884        9.8747675988
  H        33.6555386417       23.5880447336       14.7582520894
  H        25.7136801190        8.5895318165       11.4001015227
  H        30.8983906015       22.6616063854        19.902995084938
  H        31.9015936427       24.5437928741        18.606054519838
  H        35.5290416484       24.1683183016        20.887795602538
  H        34.5044696196       22.2996361744        22.191295063138
  H        33.6054644393       23.5741585365        17.196556264738
  H        40.5833814740       17.0728252246        20.646446895038
  H        32.5183006324       14.1488380640        8.2526071046
  H        29.8944055362       12.5567975001        19.884684933138
  H        28.8771007292       10.6503963963        18.634303417038
  H        25.2287121902       11.1488018384        20.857863282538
  H        26.2706322071       13.0378776041        22.122230127138
  H        27.1945906760       11.6738346853        17.222799137638
  H        33.2984617121       14.2163742823        22.435570573838
  H        33.4050023431       14.4024374838        9.6105572429
  H        32.0986138855       18.5734737593        21.180571793438
  H        30.2353666698       14.1882288093        8.0722366558
  H        16.1182162594        2.9630016832       12.1293000992
  H        14.9527414936        4.8198799755       13.3220948350
  H        17.3659329444        7.6857869695       11.2104410340
  H        18.5149450255        5.8183659192       10.0105817631
  H        16.7530969869        5.7392588568       14.7714754347
  H        44.8282374078       32.1401041012       11.9766838175
  H        45.9374546919       30.3411700115       13.3061079071
  H        43.6816449385       27.3780990063       11.1527260454
  H        42.5990612888       29.1900051264        9.8100926162
  H        44.2302488878       29.4367320068       14.7688094166
  H        14.8502008182        8.5454516069       11.3632805330
  H        44.9001682650       32.2339692024        19.921958675138
  H        46.0249575820       30.4128984768        18.642383980738
  H        43.7625543696       27.4840675747        20.834504659838
  H        42.6448882735       29.3177566567        22.113608289138
  H        44.2684275639       29.4705371347        17.207899268438
  H        34.9960341861       26.6326429353        20.638216536038
  H        36.6052223717       35.1340619411        8.1806933209
  H        16.1434372430        3.0127765660        19.894173002038
  H        14.9737119550        4.8560268500        18.678399534538
  H        17.3959527877        7.7471116921        20.744741840838
  H        18.5431780089        5.8932264500        21.972366346338
  H        16.7642981577        5.7552709588        17.209066241938
  H        36.2790152317       34.4819772678        22.263278417838
  H        36.3813198587       34.2088965226        9.4995032842
  H        40.5786376494       33.2015614441        21.144001477138
  H        17.4711460340        1.9471048833        23.963827067538
  H        28.9216493939       18.8558602411       12.4023938905
  H        28.6898588766       18.7371381503        19.866076944038
  H        32.0306570424       16.2323374602        19.748724645438
  H        30.7657596740       15.5069983275       12.3835681854
  H        26.9795470715       18.5523172305       14.5693693856
  H        29.6728600127       16.2014880966       14.6506702328
  H        32.7112710521       17.9361602380        17.670282090138
  H        30.3970493886       15.5205598407        18.677888342038
  H        30.3836810735       19.9037222961       13.9701822827
  H        18.8539597535        0.8691288567       12.3353668745
  H        40.5280707370       35.2290766518        19.941946944238
  H        42.3233438602       34.4183278530        19.580655066638
  H        22.0879561145        0.6923161763       12.3512565260
  H        11.5968095624       18.7128528162       12.3825126723
  H        52.2645234461       18.4311310953        19.667385739938
  H        49.2548682949       16.4765879070        19.574089766238
  H        10.1502820556       15.7981749512       12.2926158262
  H        50.8495734020       17.6926366278        19.943863277738
  H        10.0459209930       17.3945621881       12.0519949732
  H        20.2153918080        0.0024223372       12.0419209148
  H        39.1836310821       36.1243291851        19.676105444538
 Ni        30.8214318962       18.0367540966        19.065173262538
 Ni        31.0757704522       16.8112393603        16.487907949738
 Ni        30.6480100857       19.0170912507        16.247675338638