     569
 i =      148, E =     -4729.5220090332
  C        11.8586135119       14.0534629338        21.731395897238
  C        12.4561262668       12.8904274214        21.013108616838
  C        11.7046386356       12.1719893119        20.070928130938
  C        12.2809677782       11.1097827445        19.378520351238
  C        13.6213383193       10.7395015163        19.606652322238
  C        14.3542547202       11.4425144826        20.580729723638
  C        13.7813834907       12.5074456586        21.272325967338
  C        14.2608719645        9.6488617506        18.833234052938
  C        14.2561128313        9.6567334736        17.411524133538
  C        13.7429357205       10.7588194770        16.657568982738
  C        49.1265243968       21.2334374607        21.869501429438
  C        48.5496968479       22.4012118716        21.142387286738
  C        49.2998182756       23.0687517833        20.161588231238
  C        48.7328408586       24.1078262363        19.428365405638
  C        47.4021830957       24.5092172331        19.656793246438
  C        46.6710914194       23.8600685757        20.670030043338
  C        47.2335791024       22.8151946619        21.399393921738
  C        46.7720034578       25.5869226123        18.859512211738
  C        46.7612029568       25.5573968720        17.437742038338
  C        47.2610856749       24.4422727894        16.694281720838
  C        14.8599436015        8.5703300641        16.698257045338
  C        14.8915954081        8.5968563404        19.509867206638
  C        49.1130454772       21.2035190669       10.1453761660
  C        48.5276742449       22.3647994530       10.8725099367
  C        49.2668772024       23.0256153723       11.8653899507
  C        48.6904701828       24.0601213528       12.5968313923
  C        47.3599979265       24.4567550214       12.3586390175
  C        46.6395830287       23.8117090295       11.3352011905
  C        47.2132036635       22.7758356934       10.6034370596
  C        46.7215528609       25.5317232817       13.1496285237
  C        46.7334373947       25.5281772167       14.5713369918
  C        47.2488135644       24.4289498059       15.3277216899
  C        40.6326981073       17.1264762588       15.3262014780
  C        40.6532303474       17.1856128207       12.5170928770
  C        11.8825238132       14.0863988830       10.2854095944
  C        12.4714871814       12.9101366020       10.9893273108
  C        11.7140889650       12.1776049305       11.9160547726
  C        12.2804291405       11.0950151760       12.5844921067
  C        13.6189294404       10.7204885184       12.3521016831
  C        14.3566598334       11.4352087581       11.3904633177
  C        13.7914749342       12.5165121524       10.7177868615
  C        14.2525471189        9.6238085449       13.1226000357
  C        14.2517203217        9.6440480005       14.5444502959
  C        13.7421036078       10.7531205426       15.2915188441
  C        22.5091819336        3.2437708405        21.739880790638
  C        23.2184799506        4.3479858269        21.032740515638
  C        24.2130546801        4.0656534837        20.084737357538
  C        24.8376075349        5.1033155345        19.397538097838
  C        24.4830258703        6.4455517735        19.638057972538
  C        23.5148751186        6.7194521020        20.621361568438
  C        22.8859934877        5.6836094644        21.307285879438
  C        25.0908968045        7.5510334033        18.862384114638
  C        25.0691096916        7.5450738293        17.440846523138
  C        24.3695769708        6.5460676900        16.692465296838
  C        38.2975160567       31.9275290317        21.842031106538
  C        37.5553666049       30.8386948857        21.142065547838
  C        36.5897837933       31.1449450596        20.170484398938
  C        35.9595734101       30.1266067965        19.460271434338
  C        36.2793977822       28.7752849116        19.697853605038
  C        37.2136261855       28.4765726931        20.707853124438
  C        37.8478012460       29.4937970775        21.417578839438
  C        35.6720536617       27.6858938752        18.898097910138
  C        35.7160903273       27.6993213970        17.476307034838
  C        36.4260207117       28.7023770570        16.743677198338
  C        25.6966184470        8.6147084138        16.723950045738
  C        25.6883970011        8.6238442762        19.535094050138
  C        38.3307264077       31.9600240586       10.1610756147
  C        37.6162585155       30.8860156869       10.9111739775
  C        36.6819444670       31.1931933313       11.9125859586
  C        36.0746179085       30.1748281493       12.6456214586
  C        36.3862694660       28.8217423298       12.4024471625
  C        37.3016207165       28.5245391509       11.3737261435
  C        37.9105368507       29.5393063494       10.6415665963
  C        35.7747057288       27.7213968306       13.1847109887
  C        35.7680782668       27.7177060645       14.6076101960
  C        36.4491650979       28.7124570404       15.3771725402
  C        46.1355158720       26.6208765956       15.2814425459
  C        46.0874630222       26.5799788435       12.4735479499
  C        22.4626117872        3.2543832113       10.2544454682
  C        23.1625992844        4.3621925983       10.9718031901
  C        24.1707858465        4.0742777491       11.9052988244
  C        24.8041384108        5.1036506930       12.5970371037
  C        24.4484059702        6.4491733725       12.3773371346
  C        23.4638305036        6.7305529711       11.4117257705
  C        22.8261819191        5.7014259371       10.7200659215
  C        25.0803174724        7.5457251501       13.1517238289
  C        25.0648307062        7.5413677747       14.5738743368
  C        24.3653025116        6.5456235351       15.3260140008
  C        26.5594590510       17.8279424800        21.769633896438
  C        25.2594347546       17.8861770631        21.047996683138
  C        25.0119950215       18.8875488452        20.095640180438
  C        23.8047677872       18.9129983851        19.402501224538
  C        22.8124486133       17.9403585164        19.639327781038
  C        23.0552089924       16.9633517911        20.623104595838
  C        24.2635267322       16.9325350750        21.315228394338
  C        21.5484438218       17.9296987246        18.865009101638
  C        21.5601769238       17.9267305780        17.442868523838
  C        22.7713720936       17.8139350947        16.689663198538
  C        34.4364022489       17.1855746035        21.907036094638
  C        35.7300723493       17.1289166419        21.171121736338
  C        35.9226959936       16.1777150162        20.156519496838
  C        37.1033049815       16.1638192828        19.420153663538
  C        38.1240199260       17.0997084278        19.677787492738
  C        37.9348766575       18.0287940740        20.719312027638
  C        36.7514803330       18.0491541958        21.452903881538
  C        39.3765738283       17.1106080751        18.890150501038
  C        39.3727018746       17.1322912847        17.467849073738
  C        38.1669567731       17.2619494633        16.709486722138
  C        20.3181478807       17.9517199895        16.727863104738
  C        20.3205849301       17.9191224173        19.540352055638
  C        34.5025988588       17.2323999883       10.1465155319
  C        35.7886433686       17.1782913493       10.8925013718
  C        36.0093304692       16.1833334005       11.8568065337
  C        37.1886941326       16.1742051351       12.5952986180
  C        38.1766529234       17.1551889562       12.3846400909
  C        37.9607359515       18.1287078437       11.3916109803
  C        36.7772455030       18.1464571416       10.6591726321
  C        39.4224862089       17.1688042572       13.1813178170
  C        39.3965864445       17.1615583727       14.6022061851
  C        38.1779449090       17.2731786094       15.3425777345
  C        35.1339962175       26.6374737223       15.3078508598
  C        35.1950068798       26.6464957087       12.4978410312
  C        26.5655600093       17.8476414587       10.2863654723
  C        25.2542469944       17.9116902351       10.9913001470
  C        25.0070948431       18.9135050023       11.9426412022
  C        23.7949099564       18.9443801231       12.6269667516
  C        22.8004949984       17.9761919359       12.3811912245
  C        23.0427383673       17.0009350602       11.3963919239
  C        24.2557419355       16.9651240758       10.7128210422
  C        21.5371012922       17.9607091873       13.1543617371
  C        21.5539264616       17.9426192724       14.5757154280
  C        22.7680127089       17.8220229403       15.3234666604
  C        14.0474595169       17.8340938768       10.2823229828
  C        15.3571846353       17.9050887674       10.9951997710
  C        15.6160133621       18.9229294103       11.9260920739
  C        16.8288779856       18.9565637143       12.6108932690
  C        17.8147765057       17.9751448623       12.3859194555
  C        17.5620433488       16.9829636249       11.4203766339
  C        16.3486619319       16.9451205632       10.7367428344
  C        19.0815833332       17.9637798003       13.1571982672
  C        19.0719860707       17.9518421614       14.5788972089
  C        17.8595864909       17.8472699897       15.3306750725
  C        46.8052135819       17.2203481078       10.1600128356
  C        45.5174869336       17.1635383889       10.9081948710
  C        45.3081943973       16.1848835901       11.8921768062
  C        44.1283346691       16.1727014321       12.6310470101
  C        43.1285724877       17.1397968707       12.4083583934
  C        43.3354143505       18.0984163560       11.3979813657
  C        44.5155516851       18.1141623764       10.6596644116
  C        41.8763243231       17.1550964119       13.1970126293
  C        41.8803468318       17.1403290979       14.6189474346
  C        43.0887191266       17.2232167346       15.3793019637
  C        20.3145216130       17.9588110420       15.2935952078
  C        20.3083595157       17.9510628947       12.4813587655
  C        46.7851163656       17.2292873090        21.880914142938
  C        45.4811098836       17.1182256704        21.169795797838
  C        45.2649662946       16.1186632183        20.209032959838
  C        44.0765695863       16.0882441544        19.484004582838
  C        43.0752274246       17.0539649785        19.703525817338
  C        43.2810261621       18.0217882512        20.704415883638
  C        44.4707107306       18.0589985703        21.424175333838
  C        41.8305408514       17.0771972387        18.905369905438
  C        41.8571666272       17.0989382885        17.484507598238
  C        43.0775792240       17.2018139638        16.745778251938
  C        46.1532907499       26.6373230778        16.715983342438
  C        46.1619252045       26.6559630038        19.525638340938
  C        14.0403486550       17.8265466710        21.693729382338
  C        15.3533989164       17.8913368361        20.988569521038
  C        15.6258781929       18.9148009975        20.068795745738
  C        16.8489703118       18.9498313497        19.403464215838
  C        17.8253891798       17.9602390011        19.632974336538
  C        17.5578675521       16.9611349169        20.586208877338
  C        16.3370337092       16.9260694227        21.255633776438
  C        19.0932606861       17.9438973760        18.866313781538
  C        19.0783498662       17.9404665553        17.444910575638
  C        17.8627395468       17.8419899760        16.696675422438
  C        28.8388432114       14.0397312795       10.3220775112
  C        28.2272170834       12.8744800926       11.0180948691
  C        28.9480612477       12.1517733365       11.9810043717
  C        28.3444698989       11.0930370010       12.6549383185
  C        27.0091977474       10.7292520175       12.3856571470
  C        26.3110208446       11.4325119031       11.3872062953
  C        26.9089038236       12.4956914107       10.7164555615
  C        26.3367439107        9.6554417456       13.1521990184
  C        26.3156133226        9.6848139154       14.5729197438
  C        26.8128383404       10.7995107263       15.3194060218
  C        32.1970486417       21.2346521119       10.1443075288
  C        32.7937146418       22.3900847896       10.8729096106
  C        32.0464203660       23.0670878443       11.8496170065
  C        32.6172430755       24.1068309202       12.5769613097
  C        33.9512920138       24.4986022334       12.3509616452
  C        34.6814511130       23.8386689976       11.3439987155
  C        34.1134486784       22.7935084378       10.6176835134
  C        34.5764170710       25.5757149954       13.1533153997
  C        34.5552885523       25.5493455725       14.5755270904
  C        34.0473130650       24.4321704336       15.3109597841
  C        25.6996236775        8.6088181877       15.2896904202
  C        25.7017410626        8.6045466862       12.4772344079
  C        32.0736856564       21.1956656454        21.863523097238
  C        32.6432465881       22.3592089296        21.123585851538
  C        31.9215964859       22.9894740690        20.097977858438
  C        32.4967653491       24.0299772136        19.370382022138
  C        33.8074922191       24.4690808631        19.645797765138
  C        34.5090011144       23.8515369802        20.699815706738
  C        33.9395757910       22.8083966568        21.424013328438
  C        34.4524156128       25.5520358498        18.865902259038
  C        34.4911368127       25.5376364721        17.443351541238
  C        34.0156508549       24.4269712347        16.677433374338
  C        40.6202801028       17.1080771488        16.760359265338
  C        40.5998726058       17.1010154823        19.569725944438
  C        28.7440927379       14.0559429198        21.770808973538
  C        28.1301082139       12.9076713788        21.051741514238
  C        28.8545494171       12.2303552964        20.058253478438
  C        28.2724436839       11.1730326082        19.365966464638
  C        26.9487807575       10.7706419079        19.636531346038
  C        26.2432738188       11.4345619768        20.657941383138
  C        26.8246248339       12.4903147929        21.356402729738
  C        26.3036742384        9.6863922433        18.860488836038
  C        26.2975606880        9.7024816868        17.438347180738
  C        26.8001323816       10.8101118476        16.685193064438
  C        18.1352640559        3.1806674333       10.3170909785
  C        17.4056024610        4.2778229052       11.0156236261
  C        16.3901252549        3.9992288359       11.9433219396
  C        15.7421312872        5.0390594721       12.6068142707
  C        16.0935244210        6.3828646239       12.3669076954
  C        17.0825848340        6.6526108474       11.4028739006
  C        17.7319349462        5.6154171056       10.7378412463
  C        15.4691105639        7.4905083336       13.1299632858
  C        15.4847424282        7.4900528306       14.5516788618
  C        16.1864817729        6.4965582104       15.3048413797
  C        42.9457863850       31.8594184662       10.0728254638
  C        43.6460841134       30.7717704540       10.8167372899
  C        44.5917644163       31.0930563171       11.8026895134
  C        45.1974237769       30.0874942806       12.5503435390
  C        44.8708077574       28.7344499135       12.3356128114
  C        43.9448148285       28.4201364145       11.3225404554
  C        43.3360530880       29.4252952683       10.5744875706
  C        45.4884060125       27.6551865999       13.1388099002
  C        45.4927811227       27.6809763658       14.5605079243
  C        44.8057964167       28.6890925513       15.3071125179
  C        14.8559005057        8.5626370178       15.2640239595
  C        14.8735412525        8.5621040992       12.4513586819
  C        42.9463706904       31.9614720944        21.798739863938
  C        43.6915028111       30.8853976966        21.085247699838
  C        44.6564569970       31.1912934349        20.113278818538
  C        45.2779284927       30.1717067710        19.395532801438
  C        44.9537266984       28.8214149726        19.632786484538
  C        44.0197940452       28.5237446889        20.643147189638
  C        43.3915625158       29.5405109482        21.355337951538
  C        45.5628270761       27.7240501491        18.847564466838
  C        45.5333327796       27.7174900254        17.426259400738
  C        44.8270992854       28.7077631730        16.673304249138
  C        35.1042529086       26.6298819890        16.743244440338
  C        35.0560134226       26.6134399246        19.553404552738
  C        18.1484845832        3.2467861781        21.696388084738
  C        17.4298124354        4.3436475393        20.987071685238
  C        16.4146325034        4.0523627287        20.063486926638
  C        15.7663023389        5.0829776210        19.388060588838
  C        16.1209347392        6.4282221380        19.610742115038
  C        17.1122776514        6.7116163891        20.568033979438
  C        17.7599532986        5.6827267492        21.247836603638
  C        15.4904369158        7.5239262791        18.838287902538
  C        15.4962434243        7.5072686799        17.417149180638
  C        16.1929175939        6.5055126907        16.670446564338
  H        10.6726536916       12.4664621400        19.893593873838
  H        11.6947428375       10.5516353122        18.651670712438
  H        15.3910654442       11.1673955432        20.762928012338
  H        14.3505447998       13.0701117072        22.008424998638
  H        13.3759904654       11.6310000678        17.190830709638
  H        50.3226129361       22.7489039660        19.977017666438
  H        49.3193311093       24.6232629840        18.670908415838
  H        45.6414485489       24.1605104649        20.852914864638
  H        46.6624008430       22.2896829410        22.161181677738
  H        47.6294180158       23.5758098249        17.235974255938
  H        14.8718411904        8.5880364521        20.598171989938
  H        50.2869555079       22.7028652160       12.0602740350
  H        49.2687934782       24.5756535785       13.3603339249
  H        45.6100989612       24.1087542839       11.1462491136
  H        46.6523214113       22.2535605068        9.8319893052
  H        47.6073829851       23.5517250641       14.7968543743
  H        40.6594007246       17.1651999813       11.4289870376
  H        48.6869437276       14.0947898994        23.789725214938
  H        10.6808622379       12.4672868615       12.0939200222
  H        11.6886586860       10.5251599793       13.2976430385
  H        15.3917841251       11.1565691168       11.2039444015
  H        14.3636265850       13.0852642924        9.9886279583
  H        13.3751266404       11.6216596107       14.7528620248
  H        47.9299376679       14.2180773175        9.7106811798
  H        47.7800550928       14.3734276474        22.484837385338
  H        49.0832894366       18.5523484630       10.8673924519
  H        10.4156294527       14.1343042947        7.9988060509
  H        24.4749766323        3.0266542256        19.897528942538
  H        25.6100221907        4.8839760106        18.663575674438
  H        23.2330623407        7.7527850819        20.812721264638
  H        22.1170759276        5.8856466379        22.048981581538
  H        23.8053923467        5.7900930237        17.230871550238
  H        36.3581018426       32.1889404460        19.973156709938
  H        35.2120775913       30.3694302765        18.708174245338
  H        37.4686739084       27.4364520655        20.900261760338
  H        38.5947470130       29.2688930018        22.175294303638
  H        36.9833853023       29.4550668916        17.293571654838
  H        25.7224719928        8.6042399593        20.622879061438
  H        36.4506027980       32.2368609085       12.1134327290
  H        35.3435122791       30.4208513329       13.4125907333
  H        37.5569609699       27.4850394707       11.1786952567
  H        38.6376394185       29.3124104493        9.8656230074
  H        37.0250645864       29.4725327289       14.8569969122
  H        46.1086568253       26.5872311831       11.3855050810
  H        44.6681821734       35.1160988823        23.803839068738
  H        24.4478668800        3.0355476218       12.0703258383
  H        25.5888619230        4.8747420516       13.3149548402
  H        23.1785768506        7.7654890686       11.2342454740
  H        22.0497927882        5.9143350608        9.9888682107
  H        23.7973169448        5.7898334625       14.7913845158
  H        44.9535344322       34.3900260977        9.6948240094
  H        44.9018217225       34.2068784401        22.480350888238
  H        40.6658076423       33.2086368968       10.8530459938
  H        23.1503920812        1.9574088782        8.0038445960
  H        25.7754083313       19.6402223014        19.912775566238
  H        23.6152367006       19.6940765713        18.669469844538
  H        22.2989100693       16.2044204845        20.812527513538
  H        24.4644488094       16.1634572983        22.057121574338
  H        23.7097252860       17.6879491979        17.222150220238
  H        35.1294848292       15.4635261138        19.949201986438
  H        37.2498488415       15.4193155516        18.640793013438
  H        38.7149983420       18.7594069294        20.922876683538
  H        36.5891287824       18.7836309088        22.238345715438
  H        37.2266036871       17.3849933022        17.239081464038
  H        20.3206457474       17.9450403336        20.628592540338
  H        35.2391959104       15.4340742403       12.0235209469
  H        37.3597174934       15.4016388226       13.3417435427
  H        38.7176361747       18.8928570446       11.2274057485
  H        36.5879825855       18.9135070634        9.9119811942
  H        37.2461335492       17.4023702603       14.7992418305
  H        35.1777893584       26.6707596607       11.4098553562
  H        28.5060121954       21.0994908483        23.852001677838
  H        25.7775908393       19.6583160942       12.1295815294
  H        23.6035760288       19.7241726450       13.3609891803
  H        22.2830072536       16.2470009583       11.2008513587
  H        24.4585860906       16.1974429354        9.9700606849
  H        23.7037800337       17.7031732772       14.7853718925
  H        29.0303584744       21.8026328989        9.7240948783
  H        29.2004043193       21.6951023179        22.524373475238
  H        32.0818381983       18.4904573726       10.9163932995
  H        27.3870816375       18.9816837444        8.1022076898
  H        14.8554512254       19.6811278198       12.0985566834
  H        17.0265858213       19.7496232614       13.3289183045
  H        18.3144750911       16.2182131619       11.2389648669
  H        16.1395405555       16.1660904262       10.0074638294
  H        16.9205653552       17.7390318618       14.7958541158
  H        46.0868565523       15.4469918202       12.0704374398
  H        43.9654899209       15.4055201918       13.3848135061
  H        42.5716040028       18.8530825596       11.2222554162
  H        44.6919096132       18.8682701366        9.8962657205
  H        44.0314595382       17.3374585199       14.8519036352
  H        20.3071062744       17.9854758027       11.3933476433
  H        46.0444082489       15.3812672784        20.031318531738
  H        43.9114913066       15.3137721235        18.738132965338
  H        42.5121180853       18.7712898302        20.879805488638
  H        44.6519327292       18.8258455571        22.173266529438
  H        44.0119178280       17.2986111347        17.291023689138
  H        46.1984804391       26.6823641368        20.613098135038
  H        52.7409725863       21.0625377117        8.1946827825
  H        14.8700855817       19.6773473475        19.894136374338
  H        17.0619648553       19.7479218270        18.695514461538
  H        18.3035385194       16.1898894737        20.767938303838
  H        16.1145254955       16.1445383886        21.978111277138
  H        16.9260640965       17.7298191218        17.234588572238
  H        52.3218675244       21.6732961630        22.284545778138
  H        52.0126868893       21.7017918713        9.4954741421
  H        49.0668620092       18.6076476646        21.194420443738
  H        13.2469578305       19.0166991700        23.964770287238
  H        29.9766805824       12.4374575097       12.1899977460
  H        28.9038112093       10.5338240850       13.4018254230
  H        25.2794163857       11.1615137094       11.1723783593
  H        26.3640748151       13.0619343115        9.9652431418
  H        27.1783063001       11.6687026856       14.7807001977
  H        31.0219636770       22.7540848362       12.0354095530
  H        32.0319188457       24.6296844378       13.3301033320
  H        35.7141426698       24.1299385709       11.1632651008
  H        34.6837996349       22.2606883197        9.8602378344
  H        33.7069805453       23.5571787310       14.7645831200
  H        25.7372469377        8.5828278839       11.3894607394
  H        30.9166670037       22.6400439553        19.871449236138
  H        31.9289537496       24.5174461555        18.580928419938
  H        35.5237762309       24.1762016930        20.920282789638
  H        34.4907329312       22.3107178606        22.218268452638
  H        33.6510761322       23.5477045537        17.200997148638
  H        40.5927714643       17.0574942982        20.657166305238
  H        32.5220744853       14.0802648476        23.795347289238
  H        29.8713819338       12.5502376181        19.842919540738
  H        28.8415768169       10.6430252026        18.605513359038
  H        25.2194993591       11.1359158878        20.873578630438
  H        26.2746639801       13.0191792095        22.131038004038
  H        27.1529110473       11.6889912769        17.216905659038
  H        33.3599763205       14.2988126952        22.415360813438
  H        33.4445043082       14.1538581748        9.5573884942
  H        31.9856070550       18.4142447353        21.020574876738
  H        30.1939680242       14.1936020073        8.1098145049
  H        16.1184630967        2.9626462960       12.1298855488
  H        14.9528457215        4.8194595847       13.3225922898
  H        17.3645088485        7.6855771096       11.2095142614
  H        18.5136705238        5.8181904422       10.0097053216
  H        16.7528966737        5.7391218056       14.7713263170
  H        44.8281780136       32.1401179858       11.9767967309
  H        45.9373848432       30.3411901468       13.3062128247
  H        43.6819124229       27.3780919556       11.1525803172
  H        42.5993370581       29.1899402575        9.8099206393
  H        44.2303873775       29.4368229692       14.7688162082
  H        14.8494022454        8.5450768570       11.3631488641
  H        44.9003280336       32.2339494889        19.922123278038
  H        46.0250919208       30.4128767122        18.642532633138
  H        43.7623598567       27.4840508382        20.834284910938
  H        42.6446625772       29.3176833225        22.113381268238
  H        44.2685688954       29.4706435262        17.207877841838
  H        35.0014913322       26.6291171703        20.640330772938
  H        36.6051730753       35.1338653242        8.1806813623
  H        16.1435448303        3.0127772336        19.893798019638
  H        14.9739606444        4.8560793941        18.678008489638
  H        17.3957021626        7.7471018393        20.744934815238
  H        18.5427469252        5.8931573502        21.972691222038
  H        16.7643640309        5.7552793584        17.208881242338
  H        36.2787645461       34.4821164148        22.263138192538
  H        36.3808020721       34.2089900634        9.4997092432
  H        40.5786189776       33.2013244874        21.144157478438
  H        17.4708301100        1.9469655749        23.963758153738
  H        29.2180595226       19.3774736882       12.4762604622
  H        28.7823568308       18.8530549981        19.653643028138
  H        31.8307389011       15.8732368461        19.447911395738
  H        31.3268093919       15.5992586180       12.4574407876
  H        28.0197136762       17.8418499891       14.2018520595
  H        29.4992777868       15.4419247596       14.3998851429
  H        32.6753095141       17.2251583408        17.324066829438
  H        18.8528453222        0.8687239033       12.3351714631
  H        40.5282224151       35.2290735942        19.942004391638
  H        42.3230201034       34.4178671499        19.580902997138
  H        22.0877656777        0.6922992550       12.3514436615
  H        11.5967256909       18.7132014381       12.3828428258
  H        52.2647212844       18.4313186190        19.667078236838
  H        49.2551826187       16.4772122092        19.574369120138
  H        10.1506475165       15.7980634641       12.2924338596
  H        50.8498568020       17.6923865741        19.943995262538
  H        10.0462472364       17.3944403104       12.0520279309
  H        20.2141527273        0.0021638923       12.0420873908
  H        39.1836699109       36.1243736879        19.676102475038
 Ni        30.5716867793       17.6427565529        18.571815596238
 Ni        31.0692018851       16.3293846708       15.906981393938
 Ni        29.5922295122       18.1609583454        16.075655944638
 Ni        30.0985322567       17.3709701559       13.0767670140
  O        10.6499623824       14.3650454706        21.475577099038