     576
 i =      181, E =     -4780.0583328996
  C        11.8587929063       14.0535450895        21.731419575138
  C        12.4563755884       12.8906040003        21.013113291638
  C        11.7047675300       12.1718131619        20.071292355638
  C        12.2811775257       11.1096482450        19.378899861538
  C        13.6217044568       10.7397753722        19.606763193938
  C        14.3547676096       11.4431847065        20.580429161938
  C        13.7818397081       12.5081106027        21.271984585238
  C        14.2613195645        9.6491843306        18.833342085238
  C        14.2566293684        9.6570893140        17.411638123038
  C        13.7433452125       10.7591502683        16.657717038438
  C        49.1268292475       21.2332430567        21.869546044338
  C        48.5500826196       22.4011686127        21.142412396938
  C        49.3001586360       23.0685820575        20.161519440138
  C        48.7332304068       24.1077326760        19.428329636438
  C        47.4026475248       24.5092698485        19.656869162838
  C        46.6716189329       23.8602698128        20.670237847738
  C        47.2340756321       22.8153610701        21.399579415938
  C        46.7724103232       25.5869790544        18.859602539438
  C        46.7614157652       25.5573959217        17.437840395638
  C        47.2613199557       24.4422874830        16.694350853138
  C        14.8606299749        8.5707813728        16.698375725138
  C        14.8921414207        8.5972535348        19.509981406538
  C        49.1132682309       21.2034558670       10.1454390639
  C        48.5279202956       22.3648214948       10.8726272188
  C        49.2671960351       23.0256681172       11.8654123564
  C        48.6908587984       24.0602353281       12.5968532421
  C        47.3603859782       24.4568638486       12.3587298095
  C        46.6398901145       23.8117835304       11.3353825048
  C        47.2134484324       22.7758544087       10.6036357104
  C        46.7219524552       25.5318695366       13.1497259349
  C        46.7336579135       25.5282309409       14.5714279053
  C        47.2490579077       24.4289948336       15.3277992717
  C        40.6329607704       17.1152500877       15.3237936428
  C        40.6513103710       17.1530665274       12.5150898839
  C        11.8829518068       14.0865775834       10.2854719226
  C        12.4722567707       12.9106778196       10.9896395948
  C        11.7147337544       12.1775288192       11.9157777647
  C        12.2812937741       11.0950551061       12.5842031349
  C        13.6200889834       10.7212840799       12.3523354849
  C        14.3580462548       11.4367510170       11.3914469856
  C        13.7926416100       12.5179345727       10.7187570400
  C        14.2537453378        9.6245774079       13.1227650305
  C        14.2526203385        9.6446290779       14.5446060265
  C        13.7427091679       10.7535672912       15.2916697221
  C        22.5106894229        3.2457008434        21.741789641638
  C        23.2204444201        4.3539781624        21.040693834138
  C        24.2215064558        4.0800124096        20.097018049138
  C        24.8434290724        5.1232798930        19.415466264838
  C        24.4797206733        6.4633787666        19.656217429438
  C        23.5062670146        6.7289150453        20.636627468938
  C        22.8804033953        5.6876114086        21.317100157138
  C        25.0816773920        7.5731961795        18.881465832738
  C        25.0669012329        7.5611024300        17.459513770538
  C        24.3747829528        6.5563428215        16.711356141438
  C        38.3010831887       31.9315410607        21.841123472938
  C        37.5665641593       30.8434149822        21.135686996238
  C        36.6031802238       31.1493704966        20.162445674238
  C        35.9814078956       30.1302285469        19.446958803338
  C        36.3091920974       28.7810024442        19.683291962638
  C        37.2422263916       28.4823719628        20.693825163338
  C        37.8678028751       29.5002613858        21.408483320838
  C        35.7050947132       27.6910069898        18.886008662438
  C        35.7368304358       27.7069491091        17.464810214838
  C        36.4436171515       28.7094121026        16.728502626438
  C        25.6921785841        8.6306469988        16.740566332738
  C        25.6647357430        8.6555699349        19.553209569938
  C        38.3294744519       31.9619044659       10.1580587817
  C        37.6092583122       30.8896671033       10.9037426704
  C        36.6781975554       31.2005315548       11.9067362877
  C        36.0669764716       30.1840162126       12.6383758925
  C        36.3721684284       28.8305530028       12.3909579277
  C        37.2823632674       28.5295672003       11.3591076889
  C        37.8956118484       29.5426507426       10.6286560005
  C        35.7601948839       27.7332050881       13.1754002761
  C        35.7648284541       27.7286113351       14.5977143980
  C        36.4565512295       28.7201353665       15.3620070581
  C        46.1356747780       26.6208841307       15.2815568485
  C        46.0879979060       26.5802131954       12.4736574196
  C        22.4634229769        3.2571021508       10.2582294532
  C        23.1620898504        4.3655678566       10.9793936726
  C        24.1670386237        4.0786390118       11.9172070269
  C        24.7992603187        5.1077929720       12.6115646030
  C        24.4473818322        6.4547614114       12.3916137197
  C        23.4657147785        6.7349304557       11.4219502281
  C        22.8290090758        5.7060570645       10.7279552501
  C        25.0796281683        7.5529193631       13.1666462752
  C        25.0671996601        7.5494026643       14.5897201965
  C        24.3722700363        6.5523824251       15.3446780277
  C        26.6281003442       17.8661104543        21.734405048238
  C        25.3244674754       17.9197056027        21.006828355638
  C        25.0574335060       18.9195733318        20.058626577138
  C        23.8377049469       18.9431719642        19.384451617338
  C        22.8494218597       17.9694077315        19.635454712038
  C        23.1131607595       16.9918807884        20.613224326838
  C        24.3328826328       16.9645007483        21.286498518538
  C        21.5737476035       17.9543218156        18.876236584838
  C        21.5764769973       17.9332302735        17.454150418738
  C        22.7834385969       17.8047320070        16.697051647438
  C        34.4937559113       17.2225161598        21.985654014438
  C        35.7763964521       17.1640804362        21.228693007938
  C        35.9600606020       16.1885867990        20.236039588638
  C        37.1240370761       16.1735148981        19.472462571938
  C        38.1365159110       17.1285049742        19.686822636038
  C        37.9550059693       18.0844715070        20.704732493938
  C        36.7862314121       18.1094560173        21.461123499638
  C        39.3833541932       17.1283124300        18.889112409638
  C        39.3760230248       17.1339255224        17.467403101138
  C        38.1678278662       17.2481844771        16.710266413938
  C        20.3315254836       17.9536931275        16.743897251738
  C        20.3485838493       17.9525124255        19.558143166038
  C        34.4949837506       17.2177770445       10.1539700245
  C        35.7897100218       17.1493998016       10.8867663356
  C        36.0011066651       16.1619149808       11.8606159847
  C        37.1802408466       16.1481975915       12.5997523840
  C        38.1766611357       17.1186034237       12.3809961578
  C        37.9716936462       18.0819883834       11.3757198306
  C        36.7891967157       18.1033106836       10.6420859736
  C        39.4207246504       17.1360294578       13.1801674531
  C        39.3955287861       17.1392264360       14.6012109206
  C        38.1770493232       17.2489213834       15.3432375033
  C        35.1313025636       26.6508132045       15.3015850302
  C        35.1711952751       26.6617117280       12.4922482323
  C        26.5923805074       17.8069988805       10.3331981750
  C        25.2798398281       17.8684320642       11.0402744505
  C        25.0294433872       18.8659202836       11.9943971744
  C        23.8064206356       18.9066727098       12.6589787054
  C        22.8067050644       17.9479181519       12.3971784461
  C        23.0540531668       16.9747556971       11.4117875489
  C        24.2754429213       16.9338711007       10.7427867859
  C        21.5395921328       17.9357621311       13.1652969626
  C        21.5589048444       17.9213484999       14.5869349217
  C        22.7748916068       17.7974834745       15.3312394640
  C        14.0485242781       17.8315715734       10.2861620803
  C        15.3563112577       17.8962638867       11.0054685834
  C        15.6142321738       18.9069731558       11.9447904334
  C        16.8255123328       18.9354527140       12.6335288328
  C        17.8133204691       17.9561072850       12.4052407856
  C        17.5606485327       16.9701969205       11.4326633636
  C        16.3487734120       16.9372725518       10.7453535495
  C        19.0824309742       17.9435977033       13.1750362507
  C        19.0773711781       17.9387042960       14.5976996063
  C        17.8687073925       17.8399647811       15.3566415236
  C        46.8053443582       17.2191399015       10.1592701407
  C        45.5168655844       17.1581934091       10.9063723634
  C        45.3119924991       16.1797650682       11.8914447893
  C        44.1317308833       16.1622834883       12.6295275969
  C        43.1271067634       17.1235574771       12.4045190335
  C        43.3293648295       18.0817900913       11.3929534044
  C        44.5101921963       18.1030254490       10.6555808523
  C        41.8749138274       17.1342990394       13.1937290957
  C        41.8800271185       17.1294761061       14.6153322828
  C        43.0893572080       17.2222535241       15.3732689020
  C        20.3222593209       17.9475750861       15.3089799357
  C        20.3084732360       17.9268682742       12.4959158350
  C        46.7866678875       17.2308521381        21.880286454638
  C        45.4840627403       17.1249720772        21.166418637938
  C        45.2652749914       16.1248494104        20.207160344638
  C        44.0779443538       16.0990371573        19.480450395138
  C        43.0815744644       17.0703290522        19.696959830738
  C        43.2903268725       18.0397679936        20.695386981938
  C        44.4787257480       18.0720055465        21.417141069438
  C        41.8365655220       17.0939732221        18.900257513638
  C        41.8605647374       17.1072685432        17.479929430238
  C        43.0801699601       17.2090479301        16.739533647638
  C        46.1534210153       26.6372951542        16.716104956738
  C        46.1624481594       26.6560787278        19.525746612838
  C        14.0451441542       17.8312206869        21.696445007738
  C        15.3645718110       17.9058084866        21.001110817638
  C        15.6359223098       18.9251990769        20.076004608038
  C        16.8632244712       18.9660848343        19.417720733038
  C        17.8480364950       17.9867500145        19.658222971438
  C        17.5826471066       16.9945371774        20.619809675038
  C        16.3573651259       16.9533414978        21.281863990538
  C        19.1165427802       17.9690045006        18.889533363338
  C        19.0952286687       17.9510609470        17.467381331338
  C        17.8772663484       17.8453464276        16.723068726438
  C        28.8126663402       14.0885419659       10.3605816497
  C        28.2046740346       12.9189162210       11.0601429515
  C        28.9314092526       12.1820054226       12.0071950888
  C        28.3342087525       11.1105885132       12.6679824263
  C        26.9974378604       10.7493833701       12.4034340788
  C        26.2921560058       11.4678502764       11.4210368879
  C        26.8855341497       12.5410772063       10.7613114633
  C        26.3305263895        9.6678813062       13.1660854433
  C        26.3123416536        9.6964174135       14.5872721958
  C        26.8119274433       10.8108723578       15.3332210336
  C        32.1793877534       21.2480520290       10.1509806748
  C        32.7729037196       22.4096000557       10.8747332684
  C        32.0200456330       23.0917611608       11.8436188769
  C        32.5890064986       24.1308463061       12.5737315283
  C        33.9255111976       24.5172743890       12.3533432965
  C        34.6606253438       23.8534194524       11.3534357409
  C        34.0949419627       22.8076620525       10.6269053891
  C        34.5525712453       25.5942796972       13.1522900727
  C        34.5396425229       25.5672125612       14.5736632809
  C        34.0272035839       24.4536313924       15.3115004334
  C        25.6987456888        8.6199476049       15.3054678367
  C        25.6968456544        8.6152974924       12.4918808386
  C        32.0980236995       21.2313710831        21.878038001338
  C        32.6828198743       22.3872122031        21.140452501438
  C        31.9462990282       23.0423104160        20.141284161938
  C        32.5240886819       24.0726141450        19.403585575638
  C        33.8513409565       24.4768156091        19.647008127238
  C        34.5702052724       23.8349462477        20.673797147838
  C        33.9978175664       22.7990017743        21.406742837938
  C        34.4904882304       25.5576837444        18.861966064938
  C        34.5070737276       25.5486787421        17.440002809438
  C        34.0107393372       24.4446330824        16.677946699938
  C        40.6225676567       17.1080222500        16.757858500638
  C        40.6075029608       17.1241395053        19.566643237638
  C        28.7143110838       14.0922401082        21.814059410938
  C        28.0945328240       12.9513751573        21.077238561138
  C        28.8298694278       12.2473563995        20.110713894438
  C        28.2485646876       11.1932490248        19.411501117938
  C        26.9128963367       10.8130984523        19.651852052438
  C        26.1924994122       11.5045046801        20.644446203738
  C        26.7730343952       12.5608016108        21.345570191938
  C        26.2779674269        9.7186928011        18.877378661138
  C        26.2855720138        9.7235098903        17.454789171538
  C        26.7956578465       10.8257736756        16.699094988738
  C        18.1354101610        3.1810078681       10.3172040146
  C        17.4060974418        4.2782443816       11.0157478620
  C        16.3904268544        3.9998872871       11.9433246236
  C        15.7427165860        5.0398744370       12.6068171225
  C        16.0945739949        6.3835963747       12.3670450817
  C        17.0838634472        6.6531127560       11.4031818872
  C        17.7329581796        5.6157662905       10.7381482615
  C        15.4702852521        7.4913062675       13.1300854162
  C        15.4857238913        7.4906986727       14.5517925443
  C        16.1874087467        6.4971655420       15.3049508025
  C        42.9459413288       31.8595542531       10.0729562828
  C        43.6463566823       30.7719280117       10.8168479156
  C        44.5917657890       31.0932663006       11.8030416130
  C        45.1974913569       30.0877231777       12.5506870386
  C        44.8712091940       28.7346316930       12.3357363263
  C        43.9455463235       28.4202841732       11.3223684605
  C        43.3367107251       29.4254140945       10.5743346468
  C        45.4888001890       27.6553467711       13.1389323442
  C        45.4929600949       27.6809975108       14.5606263898
  C        44.8058475458       28.6890189553       15.3072581792
  C        14.8567630299        8.5631933469       15.2641537846
  C        14.8749026543        8.5630089815       12.4514835509
  C        42.9464342407       31.9615593025        21.798793456438
  C        43.6916962434       30.8854644348        21.085372600938
  C        44.6561747039       31.1913882305        20.112949130638
  C        45.2777304019       30.1718096305        19.395252335038
  C        44.9540961304       28.8214633893        19.632975354738
  C        44.0207488375       28.5237858611        20.643885628238
  C        43.3924604349       29.5405417756        21.356053829638
  C        45.5631388154       27.7240850015        18.847709212338
  C        45.5334525586       27.7174422224        17.426408247038
  C        44.8271000088       28.7076406767        16.673443759738
  C        35.1157984018       26.6403944646        16.736229519938
  C        35.1009352035       26.6155534259        19.546116760738
  C        18.1487535587        3.2471717174        21.696477009438
  C        17.4302732263        4.3440430295        20.987153376338
  C        16.4151551198        4.0528041501        20.063473315338
  C        15.7669083573        5.0834499489        19.388052801338
  C        16.1215453145        6.4286808397        19.610836311938
  C        17.1128325707        6.7120302077        20.568204881938
  C        17.7604381645        5.6831038930        21.248010826238
  C        15.4910605909        7.5243764093        18.838390398038
  C        15.4969406619        7.5077298626        17.417258482038
  C        16.1937312283        6.5060510440        16.670554762438
  H        10.6726595054       12.4659906759        19.894205982938
  H        11.6949223175       10.5512396095        18.652276449338
  H        15.3917480774       11.1684802856        20.762287849538
  H        14.3511744381       13.0712055578        22.007622164038
  H        13.3762363784       11.6312399802        17.191017746038
  H        50.3229003701       22.7486089294        19.976858049238
  H        49.3197364509       24.6230724118        18.670819479638
  H        45.6420586434       24.1608896225        20.853270919038
  H        46.6630069785       22.2900042708        22.161550783938
  H        47.6297653459       23.5758731008        17.236040319238
  H        14.8724193136        8.5884732709        20.598287393538
  H        50.2872954098       22.7029265330       12.0602132892
  H        49.2692779938       24.5758036951       13.3602593918
  H        45.6104110263       24.1088571797       11.1464674505
  H        46.6525427498       22.2535290387        9.8322447698
  H        47.6077482740       23.5518422310       14.7968968491
  H        40.6567295227       17.1251327440       11.4271691572
  H        48.6871184939       14.0948039311        23.789810889838
  H        10.6812655872       12.4666270590       12.0931761951
  H        11.6894727838       10.5246648733       13.2968821938
  H        15.3934550878       11.1588003149       11.2054782242
  H        14.3649491816       13.0872781739        9.9901794559
  H        13.3757232978       11.6221016587       14.7530097787
  H        47.9300859345       14.2182851388        9.7107045417
  H        47.7800797377       14.3735452516        22.485082303138
  H        49.0840453466       18.5522681452       10.8675135591
  H        10.4160034719       14.1342915352        7.9987666973
  H        24.4905880658        3.0431359206        19.907951318138
  H        25.6204936381        4.9098096996        18.684687324638
  H        23.2170690593        7.7599473781        20.829431784638
  H        22.1071404379        5.8839265267        22.055772028638
  H        23.8127960077        5.7989772202        17.250038690438
  H        36.3671948007       32.1930490882        19.968782450638
  H        35.2342032144       30.3697992766        18.693592925038
  H        37.5019155361       27.4427812010        20.882576831538
  H        38.6142941387       29.2788006002        22.167525967038
  H        37.0076124817       29.4594043829        17.275354383038
  H        25.6893954689        8.6431409457        20.641394396238
  H        36.4537740831       32.2451784429       12.1101268403
  H        35.3391191461       30.4313625621       13.4079786730
  H        37.5309853115       27.4889555296       11.1614251341
  H        38.6200506495       29.3145466363        9.8505996106
  H        37.0315660895       29.4778554727       14.8375191110
  H        46.1094043328       26.5875678060       11.3856217289
  H        44.6682618694       35.1161515453        23.803710552738
  H        24.4436926124        3.0400404793       12.0840885723
  H        25.5815465847        4.8765940781       13.3314448504
  H        23.1814667253        7.7697678771       11.2420673185
  H        22.0555785804        5.9212541896        9.9942060433
  H        23.8075808643        5.7926978336       14.8120189778
  H        44.9537716595       34.3903698087        9.6951698875
  H        44.9014743722       34.2068219411        22.480250769638
  H        40.6662330037       33.2092907870       10.8533338128
  H        23.1506443959        1.9580676381        8.0050467307
  H        25.8111896204       19.6799078399        19.867119359238
  H        23.6353932629       19.7252121268        18.655704471238
  H        22.3624209736       16.2306627123        20.815593843538
  H        24.5463755840       16.1979828880        22.027723499438
  H        23.7225872050       17.6789740784        17.227688699438
  H        35.1721094925       15.4566018273        20.072093258838
  H        37.2653076240       15.4120750968        18.708499823838
  H        38.7298513582       18.8296370226        20.872438140238
  H        36.6273684273       18.8645852377        22.227449981938
  H        37.2271442116       17.3670711592        17.240570768638
  H        20.3539482856       17.9896856265        20.646132836538
  H        35.2221998260       15.4240201649       12.0369319382
  H        37.3428809909       15.3814808598       13.3540342824
  H        38.7359924353       18.8370391929       11.2039687812
  H        36.6083062153       18.8643720915        9.8867997980
  H        37.2431944403       17.3671161668       14.8008889554
  H        35.1475150357       26.6854626343       11.4043996423
  H        28.5070884490       21.0868253074        23.980827826938
  H        25.8053677611       19.6001397923       12.1995058107
  H        23.6120950134       19.6857368151       13.3929458403
  H        22.2918778637       16.2266411758       11.2035780515
  H        24.4805178421       16.1712094565        9.9954181186
  H        23.7074237941       17.6659523242       14.7906818142
  H        28.9937186598       21.7200023080        9.7674043639
  H        29.1371344256       21.7532442012        22.603360229038
  H        32.1104924855       18.5472251190       11.0026495722
  H        27.4035420515       19.0784068507        8.0858701253
  H        14.8545541201       19.6653888873       12.1203758344
  H        17.0210841676       19.7249658218       13.3560229899
  H        18.3128302255       16.2061375387       11.2471627059
  H        16.1422972089       16.1625611249       10.0106873041
  H        16.9270432284       17.7273715300       14.8272092125
  H        46.0946571025       15.4465792669       12.0714752262
  H        43.9727065580       15.3957365846       13.3847602044
  H        42.5614298813       18.8318240125       11.2154148488
  H        44.6830979092       18.8569018517        9.8911397312
  H        44.0307732261       17.3367204003       14.8435985440
  H        20.3045627768       17.9587226648       11.4077997497
  H        46.0414659994       15.3833337484        20.032449478838
  H        43.9094744972       15.3238672460        18.736083770638
  H        42.5247265617       18.7932820611        20.867920198238
  H        44.6630700268       18.8391436673        22.165122937638
  H        44.0145926106       17.3120587996        17.283513081038
  H        46.1992799846       26.6825799111        20.613193341338
  H        52.7410726826       21.0625995782        8.1946881999
  H        14.8751941130       19.6801704737        19.889965304938
  H        17.0719381311       19.7607785169        18.704660962838
  H        18.3333962290       16.2310496548        20.813203035238
  H        16.1387412352       16.1748961231        22.008891448338
  H        16.9421493620       17.7366481144        17.264290672138
  H        52.3221088378       21.6731676400        22.284255094838
  H        52.0128526179       21.7017391617        9.4956257199
  H        49.0677334568       18.6077501874        21.194244698538
  H        13.2475126123       19.0166015223        23.966177846738
  H        29.9628391750       12.4615558172       12.2108981653
  H        28.9000707617       10.5395147049       13.4009414649
  H        25.2589128291       11.2002200277       11.2095690571
  H        26.3373996330       13.1167116161       10.0194974744
  H        27.1816157687       11.6772450186       14.7929612228
  H        30.9898399898       22.7878703890       12.0150690439
  H        32.0003708334       24.6583037289       13.3212137270
  H        35.6950538609       24.1424127091       11.1791016919
  H        34.6682717406       22.2698903366        9.8753316196
  H        33.6709546270       23.5847408159       14.7657239375
  H        25.7291406456        8.5957818354       11.4039172514
  H        30.9258848017       22.7209306864        19.946059302838
  H        31.9471133708       24.5804256088        18.633804579238
  H        35.5979988371       24.1357664744        20.865958017838
  H        34.5592121264       22.2793754250        22.179707482138
  H        33.6425891733       23.5685280405        17.204493454138
  H        40.6019313576       17.0902153941        20.654373024838
  H        32.5089466696       14.1347475949        8.2574485555
  H        29.8614700291       12.5348306993        19.924131027038
  H        28.8296637531       10.6454414850        18.672880354938
  H        25.1589679119       11.2248468993        20.838414666938
  H        26.2119174460       13.1080585467        22.099532371738
  H        27.1513431822       11.7041890339        17.229763995638
  H        33.3055029702       14.2272502714        22.449206310338
  H        33.4090259695       14.4152234999        9.5937221689
  H        32.1686919971       18.5921508821        21.113423688338
  H        30.2371357575       14.1963004376        8.0716623340
  H        16.1183923825        2.9633851176       12.1297736412
  H        14.9532917525        4.8205097486       13.3225112574
  H        17.3662084358        7.6859974323       11.2099889920
  H        18.5149420098        5.8184032746       10.0102400103
  H        16.7539609305        5.7398284609       14.7714412901
  H        44.8279687707       32.1403497834       11.9773187203
  H        45.9372748316       30.3414937611       13.3067055138
  H        43.6829984233       27.3781977734       11.1521320962
  H        42.6002644969       29.1900190690        9.8095256331
  H        44.2304587331       29.4367685228       14.7689698113
  H        14.8510095203        8.5461727281       11.3632664650
  H        44.8996456945       32.2340702356        19.921418449138
  H        46.0245580301       30.4130546074        18.641943734538
  H        43.7639100458       27.4840449723        20.835557083538
  H        42.6461098378       29.3176857766        22.114625425538
  H        44.2685402590       29.4704982564        17.208012878738
  H        35.0588787021       26.6276396344        20.633575179038
  H        36.6051722787       35.1342172461        8.1805030375
  H        16.1440514956        3.0132372906        19.893728806938
  H        14.9746193506        4.8566284327        18.677920079338
  H        17.3962788187        7.7475009246        20.745171456638
  H        18.5431943914        5.8935318065        21.972911741538
  H        16.7652373297        5.7558575652        17.208980441338
  H        36.2787932533       34.4827508662        22.263001991338
  H        36.3807330308       34.2092256342        9.4995189972
  H        40.5805155770       33.2030505352        21.143855381538
  H        17.4709457424        1.9475785911        23.964106002038
  H        29.1804715542       19.4146482209       12.4885027931
  H        28.8048747008       19.1685376327        19.671647658338
  H        31.3538917191       14.8128545465        19.997212225738
  H        31.3608169859       15.6088383861       12.5386921585
  H        28.2820779163       17.8507747748       14.6263494355
  H        29.2277206752       15.3917540246       14.0155716990
  H        31.2510629106       20.6212223968       15.922634055238
  H        31.9772236826       17.7185375165        17.286234998238
  H        28.2278558626       16.9462499459        17.928059505338
  H        31.0076660222       20.8016250907       14.3737789700
  H        18.8534322506        0.8688757898       12.3353927067
  H        40.5279419538       35.2290490075        19.941777289538
  H        42.3247013908       34.4194015620        19.580235884238
  H        22.0879685349        0.6923149585       12.3516460739
  H        11.5967641961       18.7133669860       12.3829180682
  H        52.2647752181       18.4312207403        19.666940716138
  H        49.2551730326       16.4769408287        19.574449819438
  H        10.1508675364       15.7980708402       12.2925359006
  H        50.8499413141       17.6923625303        19.944040916938
  H        10.0464489741       17.3943902085       12.0520401143
  H        20.2147371305        0.0023547158       12.0420335609
  H        39.1837394315       36.1244181247        19.675960264738
 Ni        30.3960469076       16.4682522745        18.744076987138
 Ni        29.5482629183       16.5666976548        16.064305223738