 DBCSR| CPU Multiplication driver                                           XSMM
 DBCSR| Multrec recursion limit                                              512
 DBCSR| Multiplication stack size                                           1000
 DBCSR| Maximum elements for images                                    UNLIMITED
 DBCSR| Multiplicative factor virtual images                                   1
 DBCSR| Use multiplication densification                                       T
 DBCSR| Multiplication size stacks                                             3
 DBCSR| Number of 3D layers                                               SINGLE
 DBCSR| Use MPI memory allocation                                              T
 DBCSR| Use RMA algorithm                                                      F
 DBCSR| Use Communication thread                                               T
 DBCSR| Communication thread load                                             87


  **** **** ******  **  PROGRAM STARTED AT               2021-11-25 03:48:36.148
 ***** ** ***  *** **   PROGRAM STARTED ON         node1921.palmetto.clemson.edu
 **    ****   ******    PROGRAM STARTED BY                               svicchi
 ***** **    ** ** **   PROGRAM PROCESS ID                               2890265
  **** **  *******  **  PROGRAM STARTED IN  /scratch2/svicchi/CP2K-4057890.pbs02

 CP2K| version string:                                          CP2K version 7.1
 CP2K| source code revision number:                                  git:e635599
 CP2K| cp2kflags: libint fftw3 libxc parallel mpi3 scalapack xsmm               
 CP2K| is freely available from                            https://www.cp2k.org/
 CP2K| Program compiled at                          Wed Aug 12 10:01:37 EDT 2020
 CP2K| Program compiled on                           util02.palmetto.clemson.edu
 CP2K| Program compiled for                          linux-centos8-ivybridge-gcc
 CP2K| Data directory path    /software/spackages/linux-centos8-ivybridge/gcc-8.
 CP2K| Input file name                022_Zr18_C264_Ni4_O102_H186_UKS-multi7.inp

 GLOBAL| Force Environment number                                              1
 GLOBAL| Basis set file name                                          BASIS_file
 GLOBAL| Potential file name                                     POTENTIALS_file
 GLOBAL| MM Potential file name                                     MM_POTENTIAL
 GLOBAL| Coordinate file name           022_Zr18_C264_Ni4_O102_H186_UKS-multi7.x
 GLOBAL| Method name                                                        CP2K
 GLOBAL| Project name                   info-196-022_Zr18_C264_Ni4_O102_H186_UKS
 GLOBAL| Preferred FFT library                                             FFTW3
 GLOBAL| Preferred diagonalization lib.                                       SL
 GLOBAL| Run type                                           VIBRATIONAL_ANALYSIS
 GLOBAL| All-to-all communication in single precision                          F
 GLOBAL| FFTs using library dependent lengths                                  F
 GLOBAL| Global print level                                               MEDIUM
 GLOBAL| MPI I/O enabled                                                       T
 GLOBAL| Total number of message passing processes                            16
 GLOBAL| Number of threads for this process                                    1
 GLOBAL| This output is from process                                           0
 GLOBAL| CPU model name                 Intel(R) Xeon(R) CPU E5-2665 0 @ 2.40GHz
 GLOBAL| CPUID                                                              1001

 MEMORY| system memory details [Kb]
 MEMORY|                        rank 0           min           max       average
 MEMORY| MemTotal            131713748     131713748     131713748     131713748
 MEMORY| MemFree             126177340     126137308     126177340     126162790
 MEMORY| Buffers                  6284          6284          6284          6284
 MEMORY| Cached                2186348       2186348       2186348       2186348
 MEMORY| Slab                   580260        580260        580260        580260
 MEMORY| SReclaimable           223516        223516        223516        223516
 MEMORY| MemLikelyFree       128593488     128553456     128593488     128578938


 *** Fundamental physical constants (SI units) ***

 *** Literature: B. J. Mohr and B. N. Taylor,
 ***             CODATA recommended values of the fundamental physical
 ***             constants: 2006, Web Version 5.1
 ***             http://physics.nist.gov/constants

 Speed of light in vacuum [m/s]                             2.99792458000000E+08
 Magnetic constant or permeability of vacuum [N/A**2]       1.25663706143592E-06
 Electric constant or permittivity of vacuum [F/m]          8.85418781762039E-12
 Planck constant (h) [J*s]                                  6.62606896000000E-34
 Planck constant (h-bar) [J*s]                              1.05457162825177E-34
 Elementary charge [C]                                      1.60217648700000E-19
 Electron mass [kg]                                         9.10938215000000E-31
 Electron g factor [ ]                                     -2.00231930436220E+00
 Proton mass [kg]                                           1.67262163700000E-27
 Fine-structure constant                                    7.29735253760000E-03
 Rydberg constant [1/m]                                     1.09737315685270E+07
 Avogadro constant [1/mol]                                  6.02214179000000E+23
 Boltzmann constant [J/K]                                   1.38065040000000E-23
 Atomic mass unit [kg]                                      1.66053878200000E-27
 Bohr radius [m]                                            5.29177208590000E-11

 *** Conversion factors ***

 [u] -> [a.u.]                                              1.82288848426455E+03
 [Angstrom] -> [Bohr] = [a.u.]                              1.88972613288564E+00
 [a.u.] = [Bohr] -> [Angstrom]                              5.29177208590000E-01
 [a.u.] -> [s]                                              2.41888432650478E-17
 [a.u.] -> [fs]                                             2.41888432650478E-02
 [a.u.] -> [J]                                              4.35974393937059E-18
 [a.u.] -> [N]                                              8.23872205491840E-08
 [a.u.] -> [K]                                              3.15774647902944E+05
 [a.u.] -> [kJ/mol]                                         2.62549961709828E+03
 [a.u.] -> [kcal/mol]                                       6.27509468713739E+02
 [a.u.] -> [Pa]                                             2.94210107994716E+13
 [a.u.] -> [bar]                                            2.94210107994716E+08
 [a.u.] -> [atm]                                            2.90362800883016E+08
 [a.u.] -> [eV]                                             2.72113838565563E+01
 [a.u.] -> [Hz]                                             6.57968392072181E+15
 [a.u.] -> [1/cm] (wave numbers)                            2.19474631370540E+05
 [a.u./Bohr**2] -> [1/cm]                                   5.14048714338585E+03
 

 CELL_TOP| Volume [angstrom^3]:                                        22838.217
 CELL_TOP| Vector a [angstrom    40.611     0.000     0.000    |a| =      40.611
 CELL_TOP| Vector b [angstrom    20.305    35.170     0.000    |b| =      40.611
 CELL_TOP| Vector c [angstrom     0.000     0.000    15.990    |c| =      15.990
 CELL_TOP| Angle (b,c), alpha [degree]:                                   90.000
 CELL_TOP| Angle (a,c), beta  [degree]:                                   90.000
 CELL_TOP| Angle (a,b), gamma [degree]:                                   60.000
 CELL_TOP| Requested initial symmetry:                       MONOCLINIC_GAMMA_AB
 CELL_TOP| Numerically orthorhombic:                                          NO

 CELL| Volume [angstrom^3]:                                            22838.217
 CELL| Vector a [angstrom]:      40.611     0.000     0.000    |a| =      40.611
 CELL| Vector b [angstrom]:      20.305    35.170     0.000    |b| =      40.611
 CELL| Vector c [angstrom]:       0.000     0.000    15.990    |c| =      15.990
 CELL| Angle (b,c), alpha [degree]:                                       90.000
 CELL| Angle (a,c), beta  [degree]:                                       90.000
 CELL| Angle (a,b), gamma [degree]:                                       60.000
 CELL| Requested initial symmetry:                           MONOCLINIC_GAMMA_AB
 CELL| Numerically orthorhombic:                                              NO

 CELL_REF| Volume [angstrom^3]:                                        22838.217
 CELL_REF| Vector a [angstrom    40.611     0.000     0.000    |a| =      40.611
 CELL_REF| Vector b [angstrom    20.305    35.170     0.000    |b| =      40.611
 CELL_REF| Vector c [angstrom     0.000     0.000    15.990    |c| =      15.990
 CELL_REF| Angle (b,c), alpha [degree]:                                   90.000
 CELL_REF| Angle (a,c), beta  [degree]:                                   90.000
 CELL_REF| Angle (a,b), gamma [degree]:                                   60.000
 CELL_REF| Requested initial symmetry:                       MONOCLINIC_GAMMA_AB
 CELL_REF| Numerically orthorhombic:                                          NO

 *******************************************************************************
 *******************************************************************************
 **                                                                           **
 **     #####                         ##              ##                      **
 **    ##   ##            ##          ##              ##                      **
 **   ##     ##                       ##            ######                    **
 **   ##     ##  ##   ##  ##   #####  ##  ##   ####   ##    #####    #####    **
 **   ##     ##  ##   ##  ##  ##      ## ##   ##      ##   ##   ##  ##   ##   **
 **   ##  ## ##  ##   ##  ##  ##      ####     ###    ##   ######   ######    **
 **    ##  ###   ##   ##  ##  ##      ## ##      ##   ##   ##       ##        **
 **     #######   #####   ##   #####  ##  ##  ####    ##    #####   ##        **
 **           ##                                                    ##        **
 **                                                                           **
 **                                                ... make the atoms dance   **
 **                                                                           **
 **            Copyright (C) by CP2K developers group (2000 - 2019)           **
 **                                                                           **
 *******************************************************************************

 DFT| Spin unrestricted (spin-polarized) Kohn-Sham calculation               UKS
 DFT| Multiplicity                                                             7
 DFT| Number of spin states                                                    2
 DFT| Charge                                                                   0
 DFT| Self-interaction correction (SIC)                                       NO
 DFT| Cutoffs: density                                              1.000000E-10
 DFT|          gradient                                             1.000000E-10
 DFT|          tau                                                  1.000000E-10
 DFT|          cutoff_smoothing_range                               0.000000E+00
 DFT| XC density smoothing                                                  NONE
 DFT| XC derivatives                                                          PW
 FUNCTIONAL| ROUTINE=NEW
 FUNCTIONAL| PBE:
 FUNCTIONAL| J.P.Perdew, K.Burke, M.Ernzerhof, Phys. Rev. Letter, vol. 77, n 18,
 FUNCTIONAL|  pp. 3865-3868, (1996){spin polarized}                             
 vdW POTENTIAL|                                                   Pair Potential
 vdW POTENTIAL|          DFT-D3 (Version 3.1)
 vdW POTENTIAL|          Potential Form: S. Grimme et al, JCP 132: 154104 (2010)
 vdW POTENTIAL|          BJ Damping: S. Grimme et al, JCC 32: 1456 (2011)
 vdW POTENTIAL|          Cutoff Radius [Bohr]:                             20.00
 vdW POTENTIAL|          s6 Scaling Factor:                               1.0000
 vdW POTENTIAL|          a1 Damping Factor:                               0.4289
 vdW POTENTIAL|          s8 Scaling Factor:                               0.7875
 vdW POTENTIAL|          a2 Damping Factor:                               4.4407
 vdW POTENTIAL|          Cutoff for CN calculation:                   0.1000E-05

 QS| Method:                                                                 GPW
 QS| Density plane wave grid type                        NON-SPHERICAL FULLSPACE
 QS| Number of grid levels:                                                    5
 QS| Density cutoff [a.u.]:                                                180.0
 QS| Multi grid cutoff [a.u.]: 1) grid level                               180.0
 QS|                           2) grid level                                60.0
 QS|                           3) grid level                                20.0
 QS|                           4) grid level                                 6.7
 QS|                           5) grid level                                 2.2
 QS| Grid level progression factor:                                          3.0
 QS| Relative density cutoff [a.u.]:                                        40.0
 QS| Consistent realspace mapping and integration 
 QS| Interaction thresholds: eps_pgf_orb:                                1.0E-05
 QS|                         eps_filter_matrix:                          0.0E+00
 QS|                         eps_core_charge:                            1.0E-12
 QS|                         eps_rho_gspace:                             1.0E-10
 QS|                         eps_rho_rspace:                             1.0E-10
 QS|                         eps_gvg_rspace:                             1.0E-05
 QS|                         eps_ppl:                                    1.0E-02
 QS|                         eps_ppnl:                                   1.0E-07


 ATOMIC KIND INFORMATION

  1. Atomic kind: C                                     Number of atoms:     264

     Orbital Basis Set                                     DZVP-MOLOPT-SR-GTH-q4

       Number of orbital shell sets:                                           1
       Number of orbital shells:                                               5
       Number of primitive Cartesian functions:                                5
       Number of Cartesian basis functions:                                   14
       Number of spherical basis functions:                                   13
       Norm type:                                                              2

       Normalised Cartesian orbitals:

                        Set   Shell   Orbital            Exponent    Coefficient

                          1       1    2s                5.605331       0.322515
                                                         2.113016       0.213043
                                                         0.769911      -0.209686
                                                         0.348157      -0.219794
                                                         0.128212      -0.022789

                          1       2    3s                5.605331       0.552234
                                                         2.113016       0.082072
                                                         0.769911       0.007843
                                                         0.348157       0.136893
                                                         0.128212       0.074283

                          1       3    3px               5.605331      -0.703879
                                                         2.113016      -0.642521
                                                         0.769911      -0.374851
                                                         0.348157      -0.139743
                                                         0.128212      -0.027849
                          1       3    3py               5.605331      -0.703879
                                                         2.113016      -0.642521
                                                         0.769911      -0.374851
                                                         0.348157      -0.139743
                                                         0.128212      -0.027849
                          1       3    3pz               5.605331      -0.703879
                                                         2.113016      -0.642521
                                                         0.769911      -0.374851
                                                         0.348157      -0.139743
                                                         0.128212      -0.027849

                          1       4    4px               5.605331      -0.480376
                                                         2.113016      -0.552894
                                                         0.769911      -0.316145
                                                         0.348157       0.210505
                                                         0.128212       0.076095
                          1       4    4py               5.605331      -0.480376
                                                         2.113016      -0.552894
                                                         0.769911      -0.316145
                                                         0.348157       0.210505
                                                         0.128212       0.076095
                          1       4    4pz               5.605331      -0.480376
                                                         2.113016      -0.552894
                                                         0.769911      -0.316145
                                                         0.348157       0.210505
                                                         0.128212       0.076095

                          1       5    4dx2              5.605331       0.640026
                                                         2.113016       0.274300
                                                         0.769911       0.446711
                                                         0.348157       0.028674
                                                         0.128212       0.029790
                          1       5    4dxy              5.605331       1.108557
                                                         2.113016       0.475102
                                                         0.769911       0.773726
                                                         0.348157       0.049666
                                                         0.128212       0.051599
                          1       5    4dxz              5.605331       1.108557
                                                         2.113016       0.475102
                                                         0.769911       0.773726
                                                         0.348157       0.049666
                                                         0.128212       0.051599
                          1       5    4dy2              5.605331       0.640026
                                                         2.113016       0.274300
                                                         0.769911       0.446711
                                                         0.348157       0.028674
                                                         0.128212       0.029790
                          1       5    4dyz              5.605331       1.108557
                                                         2.113016       0.475102
                                                         0.769911       0.773726
                                                         0.348157       0.049666
                                                         0.128212       0.051599
                          1       5    4dz2              5.605331       0.640026
                                                         2.113016       0.274300
                                                         0.769911       0.446711
                                                         0.348157       0.028674
                                                         0.128212       0.029790

     GTH Potential information for                                    GTH-PBE-q4

       Description:                       Goedecker-Teter-Hutter pseudopotential
                                           Goedecker et al., PRB 54, 1703 (1996)
                                          Hartwigsen et al., PRB 58, 3641 (1998)
                                                      Krack, TCA 114, 145 (2005)

       Gaussian exponent of the core charge distribution:               4.364419
       Electronic configuration (s p d ...):                               2   2

       Parameters of the local part of the GTH pseudopotential:

                          rloc        C1          C2          C3          C4
                        0.338471   -8.803674    1.339211

       Parameters of the non-local part of the GTH pseudopotential:

                   l      r(l)      h(i,j,l)

                   0    0.302576    9.622487
                   1    0.291507

  2. Atomic kind: H                                     Number of atoms:     186

     Orbital Basis Set                                     DZVP-MOLOPT-SR-GTH-q1

       Number of orbital shell sets:                                           1
       Number of orbital shells:                                               3
       Number of primitive Cartesian functions:                                5
       Number of Cartesian basis functions:                                    5
       Number of spherical basis functions:                                    5
       Norm type:                                                              2

       Normalised Cartesian orbitals:

                        Set   Shell   Orbital            Exponent    Coefficient

                          1       1    2s               10.068468      -0.133023
                                                         2.680223      -0.177618
                                                         0.791502      -0.258419
                                                         0.239116      -0.107525
                                                         0.082193      -0.014019

                          1       2    3s               10.068468       0.344673
                                                         2.680223       1.819821
                                                         0.791502      -0.999069
                                                         0.239116       0.017430
                                                         0.082193       0.082660

                          1       3    3px              10.068468       0.155326
                                                         2.680223       0.367157
                                                         0.791502       0.311480
                                                         0.239116       0.080105
                                                         0.082193       0.033440
                          1       3    3py              10.068468       0.155326
                                                         2.680223       0.367157
                                                         0.791502       0.311480
                                                         0.239116       0.080105
                                                         0.082193       0.033440
                          1       3    3pz              10.068468       0.155326
                                                         2.680223       0.367157
                                                         0.791502       0.311480
                                                         0.239116       0.080105
                                                         0.082193       0.033440

     GTH Potential information for                                    GTH-PBE-q1

       Description:                       Goedecker-Teter-Hutter pseudopotential
                                           Goedecker et al., PRB 54, 1703 (1996)
                                          Hartwigsen et al., PRB 58, 3641 (1998)
                                                      Krack, TCA 114, 145 (2005)

       Gaussian exponent of the core charge distribution:              12.500000
       Electronic configuration (s p d ...):                                   1

       Parameters of the local part of the GTH pseudopotential:

                          rloc        C1          C2          C3          C4
                        0.200000   -4.178900    0.724463

  3. Atomic kind: Ni                                    Number of atoms:       4

     Orbital Basis Set                                    DZVP-MOLOPT-SR-GTH-q18

       Number of orbital shell sets:                                           1
       Number of orbital shells:                                               8
       Number of primitive Cartesian functions:                                6
       Number of Cartesian basis functions:                                   31
       Number of spherical basis functions:                                   26
       Norm type:                                                              2

       Normalised Cartesian orbitals:

                        Set   Shell   Orbital            Exponent    Coefficient

                          1       1    2s               10.077428      -0.684558
                                                         5.847736      -0.844524
                                                         2.494033       1.088856
                                                         0.988355       0.395503
                                                         0.344978       0.010224
                                                         0.099466      -0.003250

                          1       2    3s               10.077428       0.096747
                                                         5.847736       0.162504
                                                         2.494033      -0.297192
                                                         0.988355      -0.319752
                                                         0.344978       0.088318
                                                         0.099466       0.118587

                          1       3    4s               10.077428       0.036437
                                                         5.847736      -0.381480
                                                         2.494033       0.003759
                                                         0.988355      -1.048256
                                                         0.344978       0.855825
                                                         0.099466      -0.176350

                          1       4    3px              10.077428      -3.133913
                                                         5.847736       3.027656
                                                         2.494033       2.353227
                                                         0.988355       0.554184
                                                         0.344978       0.019462
                                                         0.099466      -0.000291
                          1       4    3py              10.077428      -3.133913
                                                         5.847736       3.027656
                                                         2.494033       2.353227
                                                         0.988355       0.554184
                                                         0.344978       0.019462
                                                         0.099466      -0.000291
                          1       4    3pz              10.077428      -3.133913
                                                         5.847736       3.027656
                                                         2.494033       2.353227
                                                         0.988355       0.554184
                                                         0.344978       0.019462
                                                         0.099466      -0.000291

                          1       5    4px              10.077428      -0.112729
                                                         5.847736      -0.114008
                                                         2.494033      -0.347303
                                                         0.988355      -0.110323
                                                         0.344978       0.154096
                                                         0.099466       0.058386
                          1       5    4py              10.077428      -0.112729
                                                         5.847736      -0.114008
                                                         2.494033      -0.347303
                                                         0.988355      -0.110323
                                                         0.344978       0.154096
                                                         0.099466       0.058386
                          1       5    4pz              10.077428      -0.112729
                                                         5.847736      -0.114008
                                                         2.494033      -0.347303
                                                         0.988355      -0.110323
                                                         0.344978       0.154096
                                                         0.099466       0.058386

                          1       6    4dx2             10.077428       8.232726
                                                         5.847736       9.105758
                                                         2.494033       2.849835
                                                         0.988355       0.554319
                                                         0.344978       0.067245
                                                         0.099466       0.001940
                          1       6    4dxy             10.077428      14.259500
                                                         5.847736      15.771636
                                                         2.494033       4.936060
                                                         0.988355       0.960109
                                                         0.344978       0.116472
                                                         0.099466       0.003360
                          1       6    4dxz             10.077428      14.259500
                                                         5.847736      15.771636
                                                         2.494033       4.936060
                                                         0.988355       0.960109
                                                         0.344978       0.116472
                                                         0.099466       0.003360
                          1       6    4dy2             10.077428       8.232726
                                                         5.847736       9.105758
                                                         2.494033       2.849835
                                                         0.988355       0.554319
                                                         0.344978       0.067245
                                                         0.099466       0.001940
                          1       6    4dyz             10.077428      14.259500
                                                         5.847736      15.771636
                                                         2.494033       4.936060
                                                         0.988355       0.960109
                                                         0.344978       0.116472
                                                         0.099466       0.003360
                          1       6    4dz2             10.077428       8.232726
                                                         5.847736       9.105758
                                                         2.494033       2.849835
                                                         0.988355       0.554319
                                                         0.344978       0.067245
                                                         0.099466       0.001940

                          1       7    5dx2             10.077428      -2.715373
                                                         5.847736      -4.020640
                                                         2.494033      -1.397569
                                                         0.988355      -0.076143
                                                         0.344978       0.033435
                                                         0.099466       0.026032
                          1       7    5dxy             10.077428      -4.703164
                                                         5.847736      -6.963952
                                                         2.494033      -2.420661
                                                         0.988355      -0.131883
                                                         0.344978       0.057911
                                                         0.099466       0.045088
                          1       7    5dxz             10.077428      -4.703164
                                                         5.847736      -6.963952
                                                         2.494033      -2.420661
                                                         0.988355      -0.131883
                                                         0.344978       0.057911
                                                         0.099466       0.045088
                          1       7    5dy2             10.077428      -2.715373
                                                         5.847736      -4.020640
                                                         2.494033      -1.397569
                                                         0.988355      -0.076143
                                                         0.344978       0.033435
                                                         0.099466       0.026032
                          1       7    5dyz             10.077428      -4.703164
                                                         5.847736      -6.963952
                                                         2.494033      -2.420661
                                                         0.988355      -0.131883
                                                         0.344978       0.057911
                                                         0.099466       0.045088
                          1       7    5dz2             10.077428      -2.715373
                                                         5.847736      -4.020640
                                                         2.494033      -1.397569
                                                         0.988355      -0.076143
                                                         0.344978       0.033435
                                                         0.099466       0.026032

                          1       8    5fx3             10.077428      -0.467694
                                                         5.847736       0.618100
                                                         2.494033       0.066069
                                                         0.988355       0.262898
                                                         0.344978       0.004720
                                                         0.099466       0.007748
                          1       8    5fx2y            10.077428      -1.045795
                                                         5.847736       1.382114
                                                         2.494033       0.147734
                                                         0.988355       0.587859
                                                         0.344978       0.010555
                                                         0.099466       0.017325
                          1       8    5fx2z            10.077428      -1.045795
                                                         5.847736       1.382114
                                                         2.494033       0.147734
                                                         0.988355       0.587859
                                                         0.344978       0.010555
                                                         0.099466       0.017325
                          1       8    5fxy2            10.077428      -1.045795
                                                         5.847736       1.382114
                                                         2.494033       0.147734
                                                         0.988355       0.587859
                                                         0.344978       0.010555
                                                         0.099466       0.017325
                          1       8    5fxyz            10.077428      -1.811371
                                                         5.847736       2.393892
                                                         2.494033       0.255883
                                                         0.988355       1.018201
                                                         0.344978       0.018282
                                                         0.099466       0.030008
                          1       8    5fxz2            10.077428      -1.045795
                                                         5.847736       1.382114
                                                         2.494033       0.147734
                                                         0.988355       0.587859
                                                         0.344978       0.010555
                                                         0.099466       0.017325
                          1       8    5fy3             10.077428      -0.467694
                                                         5.847736       0.618100
                                                         2.494033       0.066069
                                                         0.988355       0.262898
                                                         0.344978       0.004720
                                                         0.099466       0.007748
                          1       8    5fy2z            10.077428      -1.045795
                                                         5.847736       1.382114
                                                         2.494033       0.147734
                                                         0.988355       0.587859
                                                         0.344978       0.010555
                                                         0.099466       0.017325
                          1       8    5fyz2            10.077428      -1.045795
                                                         5.847736       1.382114
                                                         2.494033       0.147734
                                                         0.988355       0.587859
                                                         0.344978       0.010555
                                                         0.099466       0.017325
                          1       8    5fz3             10.077428      -0.467694
                                                         5.847736       0.618100
                                                         2.494033       0.066069
                                                         0.988355       0.262898
                                                         0.344978       0.004720
                                                         0.099466       0.007748

     GTH Potential information for                                   GTH-PBE-q18

       Description:                       Goedecker-Teter-Hutter pseudopotential
                                           Goedecker et al., PRB 54, 1703 (1996)
                                          Hartwigsen et al., PRB 58, 3641 (1998)
                                                      Krack, TCA 114, 145 (2005)

       Gaussian exponent of the core charge distribution:               4.081633
       Electronic configuration (s p d ...):                           4   6   8

       Parameters of the local part of the GTH pseudopotential:

                          rloc        C1          C2          C3          C4
                        0.350000    2.102166    0.648484

       Parameters of the non-local part of the GTH pseudopotential:

                   l      r(l)      h(i,j,l)

                   0    0.261295    0.622658    9.970227
                                    9.970227  -12.871507
                   1    0.224253  -11.142708   12.429566
                                   12.429566  -14.706861
                   2    0.215348  -12.628146

  4. Atomic kind: O                                     Number of atoms:     102

     Orbital Basis Set                                     DZVP-MOLOPT-SR-GTH-q6

       Number of orbital shell sets:                                           1
       Number of orbital shells:                                               5
       Number of primitive Cartesian functions:                                5
       Number of Cartesian basis functions:                                   14
       Number of spherical basis functions:                                   13
       Norm type:                                                              2

       Normalised Cartesian orbitals:

                        Set   Shell   Orbital            Exponent    Coefficient

                          1       1    2s               10.389228       0.396646
                                                         3.849621       0.208811
                                                         1.388401      -0.301641
                                                         0.496955      -0.274061
                                                         0.162492      -0.033677

                          1       2    3s               10.389228       0.303673
                                                         3.849621       0.240943
                                                         1.388401      -0.313066
                                                         0.496955      -0.043055
                                                         0.162492       0.213991

                          1       3    3px              10.389228      -1.530415
                                                         3.849621      -1.371928
                                                         1.388401      -0.761951
                                                         0.496955      -0.253695
                                                         0.162492      -0.035541
                          1       3    3py              10.389228      -1.530415
                                                         3.849621      -1.371928
                                                         1.388401      -0.761951
                                                         0.496955      -0.253695
                                                         0.162492      -0.035541
                          1       3    3pz              10.389228      -1.530415
                                                         3.849621      -1.371928
                                                         1.388401      -0.761951
                                                         0.496955      -0.253695
                                                         0.162492      -0.035541

                          1       4    4px              10.389228      -0.565392
                                                         3.849621      -0.038231
                                                         1.388401      -0.382373
                                                         0.496955       0.179070
                                                         0.162492       0.122714
                          1       4    4py              10.389228      -0.565392
                                                         3.849621      -0.038231
                                                         1.388401      -0.382373
                                                         0.496955       0.179070
                                                         0.162492       0.122714
                          1       4    4pz              10.389228      -0.565392
                                                         3.849621      -0.038231
                                                         1.388401      -0.382373
                                                         0.496955       0.179070
                                                         0.162492       0.122714

                          1       5    4dx2             10.389228       1.867377
                                                         3.849621       0.670994
                                                         1.388401       1.353441
                                                         0.496955       0.273538
                                                         0.162492       0.006620
                          1       5    4dxy             10.389228       3.234392
                                                         3.849621       1.162195
                                                         1.388401       2.344229
                                                         0.496955       0.473781
                                                         0.162492       0.011466
                          1       5    4dxz             10.389228       3.234392
                                                         3.849621       1.162195
                                                         1.388401       2.344229
                                                         0.496955       0.473781
                                                         0.162492       0.011466
                          1       5    4dy2             10.389228       1.867377
                                                         3.849621       0.670994
                                                         1.388401       1.353441
                                                         0.496955       0.273538
                                                         0.162492       0.006620
                          1       5    4dyz             10.389228       3.234392
                                                         3.849621       1.162195
                                                         1.388401       2.344229
                                                         0.496955       0.473781
                                                         0.162492       0.011466
                          1       5    4dz2             10.389228       1.867377
                                                         3.849621       0.670994
                                                         1.388401       1.353441
                                                         0.496955       0.273538
                                                         0.162492       0.006620

     GTH Potential information for                                    GTH-PBE-q6

       Description:                       Goedecker-Teter-Hutter pseudopotential
                                           Goedecker et al., PRB 54, 1703 (1996)
                                          Hartwigsen et al., PRB 58, 3641 (1998)
                                                      Krack, TCA 114, 145 (2005)

       Gaussian exponent of the core charge distribution:               8.360253
       Electronic configuration (s p d ...):                               2   4

       Parameters of the local part of the GTH pseudopotential:

                          rloc        C1          C2          C3          C4
                        0.244554  -16.667215    2.487311

       Parameters of the non-local part of the GTH pseudopotential:

                   l      r(l)      h(i,j,l)

                   0    0.220956   18.337458
                   1    0.211332

  5. Atomic kind: Zr                                    Number of atoms:      18

     Orbital Basis Set                                    DZVP-MOLOPT-SR-GTH-q12

       Number of orbital shell sets:                                           1
       Number of orbital shells:                                               8
       Number of primitive Cartesian functions:                                7
       Number of Cartesian basis functions:                                   31
       Number of spherical basis functions:                                   26
       Norm type:                                                              2

       Normalised Cartesian orbitals:

                        Set   Shell   Orbital            Exponent    Coefficient

                          1       1    2s                7.568386      -0.292925
                                                         2.940870       1.053802
                                                         1.478550      -0.194175
                                                         0.699653      -0.477593
                                                         0.314575      -0.092850
                                                         0.129869       0.000474
                                                         0.046851      -0.000485

                          1       2    3s                7.568386      -0.107602
                                                         2.940870       0.453694
                                                         1.478550      -0.133469
                                                         0.699653      -0.242646
                                                         0.314575      -0.112324
                                                         0.129869       0.079936
                                                         0.046851       0.057275

                          1       3    4s                7.568386      -0.039443
                                                         2.940870      -0.239516
                                                         1.478550       0.462939
                                                         0.699653       0.054202
                                                         0.314575       0.378792
                                                         0.129869      -0.467495
                                                         0.046851       0.135277

                          1       4    3px               7.568386      -0.367032
                                                         2.940870       1.199938
                                                         1.478550      -0.729727
                                                         0.699653      -0.527717
                                                         0.314575      -0.102074
                                                         0.129869      -0.002163
                                                         0.046851      -0.000016
                          1       4    3py               7.568386      -0.367032
                                                         2.940870       1.199938
                                                         1.478550      -0.729727
                                                         0.699653      -0.527717
                                                         0.314575      -0.102074
                                                         0.129869      -0.002163
                                                         0.046851      -0.000016
                          1       4    3pz               7.568386      -0.367032
                                                         2.940870       1.199938
                                                         1.478550      -0.729727
                                                         0.699653      -0.527717
                                                         0.314575      -0.102074
                                                         0.129869      -0.002163
                                                         0.046851      -0.000016

                          1       5    4px               7.568386      -0.041149
                                                         2.940870       0.296409
                                                         1.478550      -0.285807
                                                         0.699653      -0.254468
                                                         0.314575       0.008755
                                                         0.129869       0.053085
                                                         0.046851       0.019526
                          1       5    4py               7.568386      -0.041149
                                                         2.940870       0.296409
                                                         1.478550      -0.285807
                                                         0.699653      -0.254468
                                                         0.314575       0.008755
                                                         0.129869       0.053085
                                                         0.046851       0.019526
                          1       5    4pz               7.568386      -0.041149
                                                         2.940870       0.296409
                                                         1.478550      -0.285807
                                                         0.699653      -0.254468
                                                         0.314575       0.008755
                                                         0.129869       0.053085
                                                         0.046851       0.019526

                          1       6    4dx2              7.568386      -0.104612
                                                         2.940870      -0.141339
                                                         1.478550       0.540679
                                                         0.699653       0.284252
                                                         0.314575       0.094561
                                                         0.129869       0.012195
                                                         0.046851       0.000412
                          1       6    4dxy              7.568386      -0.181193
                                                         2.940870      -0.244806
                                                         1.478550       0.936483
                                                         0.699653       0.492339
                                                         0.314575       0.163785
                                                         0.129869       0.021122
                                                         0.046851       0.000713
                          1       6    4dxz              7.568386      -0.181193
                                                         2.940870      -0.244806
                                                         1.478550       0.936483
                                                         0.699653       0.492339
                                                         0.314575       0.163785
                                                         0.129869       0.021122
                                                         0.046851       0.000713
                          1       6    4dy2              7.568386      -0.104612
                                                         2.940870      -0.141339
                                                         1.478550       0.540679
                                                         0.699653       0.284252
                                                         0.314575       0.094561
                                                         0.129869       0.012195
                                                         0.046851       0.000412
                          1       6    4dyz              7.568386      -0.181193
                                                         2.940870      -0.244806
                                                         1.478550       0.936483
                                                         0.699653       0.492339
                                                         0.314575       0.163785
                                                         0.129869       0.021122
                                                         0.046851       0.000713
                          1       6    4dz2              7.568386      -0.104612
                                                         2.940870      -0.141339
                                                         1.478550       0.540679
                                                         0.699653       0.284252
                                                         0.314575       0.094561
                                                         0.129869       0.012195
                                                         0.046851       0.000412

                          1       7    5dx2              7.568386      -0.107600
                                                         2.940870       0.230973
                                                         1.478550      -0.200541
                                                         0.699653      -0.193347
                                                         0.314575       0.007888
                                                         0.129869       0.006706
                                                         0.046851       0.006900
                          1       7    5dxy              7.568386      -0.186369
                                                         2.940870       0.400056
                                                         1.478550      -0.347346
                                                         0.699653      -0.334887
                                                         0.314575       0.013663
                                                         0.129869       0.011615
                                                         0.046851       0.011951
                          1       7    5dxz              7.568386      -0.186369
                                                         2.940870       0.400056
                                                         1.478550      -0.347346
                                                         0.699653      -0.334887
                                                         0.314575       0.013663
                                                         0.129869       0.011615
                                                         0.046851       0.011951
                          1       7    5dy2              7.568386      -0.107600
                                                         2.940870       0.230973
                                                         1.478550      -0.200541
                                                         0.699653      -0.193347
                                                         0.314575       0.007888
                                                         0.129869       0.006706
                                                         0.046851       0.006900
                          1       7    5dyz              7.568386      -0.186369
                                                         2.940870       0.400056
                                                         1.478550      -0.347346
                                                         0.699653      -0.334887
                                                         0.314575       0.013663
                                                         0.129869       0.011615
                                                         0.046851       0.011951
                          1       7    5dz2              7.568386      -0.107600
                                                         2.940870       0.230973
                                                         1.478550      -0.200541
                                                         0.699653      -0.193347
                                                         0.314575       0.007888
                                                         0.129869       0.006706
                                                         0.046851       0.006900

                          1       8    5fx3              7.568386       0.371480
                                                         2.940870      -0.155968
                                                         1.478550      -0.211323
                                                         0.699653      -0.255968
                                                         0.314575      -0.046738
                                                         0.129869      -0.005674
                                                         0.046851       0.000171
                          1       8    5fx2y             7.568386       0.830655
                                                         2.940870      -0.348756
                                                         1.478550      -0.472533
                                                         0.699653      -0.572361
                                                         0.314575      -0.104510
                                                         0.129869      -0.012687
                                                         0.046851       0.000382
                          1       8    5fx2z             7.568386       0.830655
                                                         2.940870      -0.348756
                                                         1.478550      -0.472533
                                                         0.699653      -0.572361
                                                         0.314575      -0.104510
                                                         0.129869      -0.012687
                                                         0.046851       0.000382
                          1       8    5fxy2             7.568386       0.830655
                                                         2.940870      -0.348756
                                                         1.478550      -0.472533
                                                         0.699653      -0.572361
                                                         0.314575      -0.104510
                                                         0.129869      -0.012687
                                                         0.046851       0.000382
                          1       8    5fxyz             7.568386       1.438737
                                                         2.940870      -0.604063
                                                         1.478550      -0.818452
                                                         0.699653      -0.991359
                                                         0.314575      -0.181017
                                                         0.129869      -0.021975
                                                         0.046851       0.000662
                          1       8    5fxz2             7.568386       0.830655
                                                         2.940870      -0.348756
                                                         1.478550      -0.472533
                                                         0.699653      -0.572361
                                                         0.314575      -0.104510
                                                         0.129869      -0.012687
                                                         0.046851       0.000382
                          1       8    5fy3              7.568386       0.371480
                                                         2.940870      -0.155968
                                                         1.478550      -0.211323
                                                         0.699653      -0.255968
                                                         0.314575      -0.046738
                                                         0.129869      -0.005674
                                                         0.046851       0.000171
                          1       8    5fy2z             7.568386       0.830655
                                                         2.940870      -0.348756
                                                         1.478550      -0.472533
                                                         0.699653      -0.572361
                                                         0.314575      -0.104510
                                                         0.129869      -0.012687
                                                         0.046851       0.000382
                          1       8    5fyz2             7.568386       0.830655
                                                         2.940870      -0.348756
                                                         1.478550      -0.472533
                                                         0.699653      -0.572361
                                                         0.314575      -0.104510
                                                         0.129869      -0.012687
                                                         0.046851       0.000382
                          1       8    5fz3              7.568386       0.371480
                                                         2.940870      -0.155968
                                                         1.478550      -0.211323
                                                         0.699653      -0.255968
                                                         0.314575      -0.046738
                                                         0.129869      -0.005674
                                                         0.046851       0.000171

     GTH Potential information for                                   GTH-PBE-q12

       Description:                       Goedecker-Teter-Hutter pseudopotential
                                           Goedecker et al., PRB 54, 1703 (1996)
                                          Hartwigsen et al., PRB 58, 3641 (1998)
                                                      Krack, TCA 114, 145 (2005)

       Gaussian exponent of the core charge distribution:               2.263468
       Electronic configuration (s p d ...):                           4   6   2

       Parameters of the local part of the GTH pseudopotential:

                          rloc        C1          C2          C3          C4
                        0.470000    7.796057   -1.893210

       Parameters of the non-local part of the GTH pseudopotential:

                   l      r(l)      h(i,j,l)

                   0    0.259829   23.380874   -8.571939
                                   -8.571939   11.066326
                   1    0.288969    8.592766   -5.377358
                                   -5.377358    6.362576
                   2    0.581245    0.027811    0.276862
                                    0.276862   -0.313932


 MOLECULE KIND INFORMATION


 All atoms are their own molecule, skipping detailed information


 TOTAL NUMBERS AND MAXIMUM NUMBERS

  Total number of            - Atomic kinds:                                   5
                             - Atoms:                                        574
                             - Shell sets:                                   574
                             - Shells:                                      2564
                             - Primitive Cartesian functions:               2910
                             - Cartesian basis functions:                   6736
                             - Spherical basis functions:                   6260

  Maximum angular momentum of- Orbital basis functions:                        3
                             - Local part of the GTH pseudopotential:          2
                             - Non-local part of the GTH pseudopotential:      4


 MODULE QUICKSTEP:  ATOMIC COORDINATES IN angstrom

  Atom  Kind  Element       X           Y           Z          Z(eff)       Mass

       1     1 C    6   11.858962   14.053537   21.731301      4.00      12.0107
       2     1 C    6   12.456512   12.890712   21.012991      4.00      12.0107
       3     1 C    6   11.704680   12.171399   20.071722      4.00      12.0107
       4     1 C    6   12.281105   11.109221   19.379392      4.00      12.0107
       5     1 C    6   13.621837   10.739783   19.606816      4.00      12.0107
       6     1 C    6   14.355204   11.443814   20.579794      4.00      12.0107
       7     1 C    6   13.782268   12.508777   21.271287      4.00      12.0107
       8     1 C    6   14.261334    9.649088   18.833428      4.00      12.0107
       9     1 C    6   14.256431    9.656921   17.411735      4.00      12.0107
      10     1 C    6   13.743234   10.759054   16.657870      4.00      12.0107
      11     1 C    6   49.127013   21.233216   21.869454      4.00      12.0107
      12     1 C    6   48.550279   22.401288   21.142461      4.00      12.0107
      13     1 C    6   49.300200   23.068419   20.161264      4.00      12.0107
      14     1 C    6   48.733249   24.107559   19.428059      4.00      12.0107
      15     1 C    6   47.402815   24.509413   19.656909      4.00      12.0107
      16     1 C    6   46.672018   23.860777   20.670688      4.00      12.0107
      17     1 C    6   47.234478   22.815871   21.400031      4.00      12.0107
      18     1 C    6   46.772485   25.587053   18.859622      4.00      12.0107
      19     1 C    6   46.761269   25.557316   17.437863      4.00      12.0107
      20     1 C    6   47.261088   24.442157   16.694391      4.00      12.0107
      21     1 C    6   14.860326    8.570574   16.698456      4.00      12.0107
      22     1 C    6   14.892229    8.597211   19.510069      4.00      12.0107
      23     1 C    6   49.113356   21.203342   10.145344      4.00      12.0107
      24     1 C    6   48.527986   22.364760   10.872568      4.00      12.0107
      25     1 C    6   49.266990   23.024982   11.865963      4.00      12.0107
      26     1 C    6   48.690715   24.059588   12.597414      4.00      12.0107
      27     1 C    6   47.360562   24.456921   12.358682      4.00      12.0107
      28     1 C    6   46.640429   23.812572   11.334601      4.00      12.0107
      29     1 C    6   47.213944   22.776644   10.602821      4.00      12.0107
      30     1 C    6   46.722060   25.531857   13.149706      4.00      12.0107
      31     1 C    6   46.733517   25.528088   14.571419      4.00      12.0107
      32     1 C    6   47.248804   24.428827   15.327839      4.00      12.0107
      33     1 C    6   40.633208   17.120560   15.310820      4.00      12.0107
      34     1 C    6   40.646435   17.186043   12.502049      4.00      12.0107
      35     1 C    6   11.883163   14.086580   10.285552      4.00      12.0107
      36     1 C    6   12.472552   12.910954   10.989876      4.00      12.0107
      37     1 C    6   11.714955   12.177500   11.915732      4.00      12.0107
      38     1 C    6   12.281583   11.095059   12.584112      4.00      12.0107
      39     1 C    6   13.620548   10.721655   12.352568      4.00      12.0107
      40     1 C    6   14.358670   11.437546   11.392128      4.00      12.0107
      41     1 C    6   13.793197   12.518708   10.719462      4.00      12.0107
      42     1 C    6   14.254055    9.624799   13.122907      4.00      12.0107
      43     1 C    6   14.252626    9.644647   14.544740      4.00      12.0107
      44     1 C    6   13.742703   10.753562   15.291828      4.00      12.0107
      45     1 C    6   22.511398    3.245103   21.741753      4.00      12.0107
      46     1 C    6   23.223547    4.350325   21.039816      4.00      12.0107
      47     1 C    6   24.219713    4.070599   20.092561      4.00      12.0107
      48     1 C    6   24.845001    5.110140   19.408794      4.00      12.0107
      49     1 C    6   24.489801    6.451952   19.651606      4.00      12.0107
      50     1 C    6   23.521433    6.723117   20.635602      4.00      12.0107
      51     1 C    6   22.891740    5.685522   21.318017      4.00      12.0107
      52     1 C    6   25.094271    7.559533   18.876188      4.00      12.0107
      53     1 C    6   25.070036    7.553024   17.454336      4.00      12.0107
      54     1 C    6   24.375554    6.550718   16.705007      4.00      12.0107
      55     1 C    6   38.303613   31.930452   21.838522      4.00      12.0107
      56     1 C    6   37.575630   30.840899   21.127358      4.00      12.0107
      57     1 C    6   36.617204   31.144775   20.148654      4.00      12.0107
      58     1 C    6   36.001563   30.124372   19.429246      4.00      12.0107
      59     1 C    6   36.329742   28.775567   19.667855      4.00      12.0107
      60     1 C    6   37.258990   28.479088   20.682555      4.00      12.0107
      61     1 C    6   37.878834   29.498228   21.400567      4.00      12.0107
      62     1 C    6   35.727515   27.683690   18.871189      4.00      12.0107
      63     1 C    6   35.758477   27.697630   17.449971      4.00      12.0107
      64     1 C    6   36.465565   28.698776   16.712210      4.00      12.0107
      65     1 C    6   25.688796    8.626880   16.736520      4.00      12.0107
      66     1 C    6   25.687660    8.635518   19.548979      4.00      12.0107
      67     1 C    6   38.328910   31.962449   10.155608      4.00      12.0107
      68     1 C    6   37.607413   30.888353   10.896611      4.00      12.0107
      69     1 C    6   36.678152   31.195801   11.901993      4.00      12.0107
      70     1 C    6   36.069044   30.176225   12.630843      4.00      12.0107
      71     1 C    6   36.375280   28.824231   12.377531      4.00      12.0107
      72     1 C    6   37.281847   28.526666   11.341808      4.00      12.0107
      73     1 C    6   37.893036   29.542751   10.614281      4.00      12.0107
      74     1 C    6   35.768901   27.724487   13.161819      4.00      12.0107
      75     1 C    6   35.780107   27.718211   14.583653      4.00      12.0107
      76     1 C    6   36.475321   28.708978   15.345740      4.00      12.0107
      77     1 C    6   46.135501   26.620737   15.281541      4.00      12.0107
      78     1 C    6   46.088304   26.580343   12.473649      4.00      12.0107
      79     1 C    6   22.463595    3.257059   10.257221      4.00      12.0107
      80     1 C    6   23.162367    4.366320   10.976114      4.00      12.0107
      81     1 C    6   24.169789    4.081618   11.911942      4.00      12.0107
      82     1 C    6   24.801149    5.112418   12.604507      4.00      12.0107
      83     1 C    6   24.445650    6.458558   12.385161      4.00      12.0107
      84     1 C    6   23.462007    6.736509   11.416937      4.00      12.0107
      85     1 C    6   22.826411    5.706101   10.724355      4.00      12.0107
      86     1 C    6   25.074585    7.557700   13.161288      4.00      12.0107
      87     1 C    6   25.060548    7.551639   14.584355      4.00      12.0107
      88     1 C    6   24.369230    6.551137   15.338192      4.00      12.0107
      89     1 C    6   26.641482   17.830689   21.739242      4.00      12.0107
      90     1 C    6   25.330026   17.887248   21.026828      4.00      12.0107
      91     1 C    6   25.074251   18.876999   20.065001      4.00      12.0107
      92     1 C    6   23.855235   18.906133   19.391082      4.00      12.0107
      93     1 C    6   22.856520   17.946002   19.652549      4.00      12.0107
      94     1 C    6   23.108543   16.979715   20.644990      4.00      12.0107
      95     1 C    6   24.327960   16.947525   21.319661      4.00      12.0107
      96     1 C    6   21.581693   17.934321   18.890559      4.00      12.0107
      97     1 C    6   21.581221   17.909979   17.467636      4.00      12.0107
      98     1 C    6   22.786003   17.775174   16.707480      4.00      12.0107
      99     1 C    6   34.438538   17.186765   21.875654      4.00      12.0107
     100     1 C    6   35.735748   17.116116   21.142366      4.00      12.0107
     101     1 C    6   35.941498   16.139440   20.156172      4.00      12.0107
     102     1 C    6   37.124874   16.120827   19.422852      4.00      12.0107
     103     1 C    6   38.133004   17.074826   19.661172      4.00      12.0107
     104     1 C    6   37.931916   18.028027   20.676918      4.00      12.0107
     105     1 C    6   36.745162   18.054194   21.404425      4.00      12.0107
     106     1 C    6   39.386868   17.085565   18.875662      4.00      12.0107
     107     1 C    6   39.380246   17.115413   17.454930      4.00      12.0107
     108     1 C    6   38.171682   17.252003   16.702060      4.00      12.0107
     109     1 C    6   20.334427   17.934718   16.759146      4.00      12.0107
     110     1 C    6   20.356559   17.941507   19.572754      4.00      12.0107
     111     1 C    6   34.481799   17.255074   10.147158      4.00      12.0107
     112     1 C    6   35.778150   17.197872   10.882910      4.00      12.0107
     113     1 C    6   35.985493   16.219841   11.868362      4.00      12.0107
     114     1 C    6   37.166555   16.204971   12.604073      4.00      12.0107
     115     1 C    6   38.169485   17.167113   12.374584      4.00      12.0107
     116     1 C    6   37.966076   18.123190   11.361987      4.00      12.0107
     117     1 C    6   36.782582   18.143119   10.628102      4.00      12.0107
     118     1 C    6   39.416740   17.174768   13.169057      4.00      12.0107
[...]
 flops   256 x   268 x   288         632212291584       0.0%    100.0%      0.0%
 flops   256 x   288 x   268         632212291584       0.0%    100.0%      0.0%
 flops   268 x   256 x   288         632212291584       0.0%    100.0%      0.0%
 flops   268 x   288 x   256         632212291584       0.0%    100.0%      0.0%
 flops   288 x   256 x   268         632212291584       0.0%    100.0%      0.0%
 flops   288 x   268 x   256         632212291584       0.0%    100.0%      0.0%
 flops   256 x   274 x   288         634730250240       0.0%    100.0%      0.0%
 flops   256 x   288 x   274         634730250240       0.0%    100.0%      0.0%
 flops   274 x   256 x   288         634730250240       0.0%    100.0%      0.0%
 flops   274 x   288 x   256         634730250240       0.0%    100.0%      0.0%
 flops   288 x   256 x   274         634730250240       0.0%    100.0%      0.0%
 flops   288 x   274 x   256         634730250240       0.0%    100.0%      0.0%
 flops    26 x     5 x   256         662765875200       0.0%    100.0%      0.0%
 flops     5 x    26 x   256         665510809600       0.0%    100.0%      0.0%
 flops    13 x    12 x    13         741272175072       0.0%    100.0%      0.0%
 flops   288 x   288 x   288         757436645376       0.0%    100.0%      0.0%
 flops    26 x    13 x   268         838764903184       0.0%    100.0%      0.0%
 flops    13 x    26 x   268         842046218000       0.0%    100.0%      0.0%
 flops     5 x     5 x   256         844538112000       0.0%    100.0%      0.0%
 flops    26 x    13 x   274         857543221912       0.0%    100.0%      0.0%
 flops    13 x    26 x   274         860897999000       0.0%    100.0%      0.0%
 flops     5 x    13 x   268         957264118720       0.0%    100.0%      0.0%
 flops    13 x     5 x   268         959334032800       0.0%    100.0%      0.0%
 flops     5 x    13 x   274         978695404960       0.0%    100.0%      0.0%
 flops    13 x     5 x   274         980811660400       0.0%    100.0%      0.0%
 flops    13 x    18 x    13        1079321068800       0.0%    100.0%      0.0%
 flops   256 x   256 x   268        1123932962816       0.0%    100.0%      0.0%
 flops   256 x   268 x   256        1123932962816       0.0%    100.0%      0.0%
 flops   268 x   256 x   256        1123932962816       0.0%    100.0%      0.0%
 flops   256 x   256 x   274        1128409333760       0.0%    100.0%      0.0%
 flops   256 x   274 x   256        1128409333760       0.0%    100.0%      0.0%
 flops   274 x   256 x   256        1128409333760       0.0%    100.0%      0.0%
 flops   288 x   288 x   256        1346554036224       0.0%    100.0%      0.0%
 flops   256 x   288 x   288        1346554036224       0.0%    100.0%      0.0%
 flops   288 x   256 x   288        1346554036224       0.0%    100.0%      0.0%
 flops    26 x    13 x   288        1802718597888       0.0%    100.0%      0.0%
 flops    13 x    26 x   288        1809770976000       0.0%    100.0%      0.0%
 flops     5 x    13 x   288        2057403479040       0.0%    100.0%      0.0%
 flops    13 x     5 x   288        2061852249600       0.0%    100.0%      0.0%
 flops   256 x   256 x   288        2393873842176       0.0%    100.0%      0.0%
 flops   256 x   288 x   256        2393873842176       0.0%    100.0%      0.0%
 flops   288 x   256 x   256        2393873842176       0.0%    100.0%      0.0%
 flops   268 x   268 x  1564        2727438830080       0.0%    100.0%      0.0%
 flops   268 x   268 x  1566        2730926603520       0.0%    100.0%      0.0%
 flops   274 x   274 x  1564        2850930017920       0.0%    100.0%      0.0%
 flops   274 x   274 x  1566        2854575708480       0.0%    100.0%      0.0%
 flops   268 x   288 x  1564        2930979041280       0.0%    100.0%      0.0%
 flops   288 x   268 x  1564        2930979041280       0.0%    100.0%      0.0%
 flops   268 x   288 x  1566        2934727096320       0.0%    100.0%      0.0%
 flops   288 x   268 x  1566        2934727096320       0.0%    100.0%      0.0%
 flops   274 x   288 x  1564        2996597975040       0.0%    100.0%      0.0%
 flops   288 x   274 x  1564        2996597975040       0.0%    100.0%      0.0%
 flops   274 x   288 x  1566        3000429941760       0.0%    100.0%      0.0%
 flops   288 x   274 x  1566        3000429941760       0.0%    100.0%      0.0%
 flops    26 x    13 x   256        3204833062912       0.0%    100.0%      0.0%
 flops    13 x    26 x   256        3217370624000       0.0%    100.0%      0.0%
 flops    26 x    32 x    26        3466641784320       0.0%    100.0%      0.0%
 flops     5 x    13 x   256        3657606184960       0.0%    100.0%      0.0%
 flops    13 x     5 x   256        3665515110400       0.0%    100.0%      0.0%
 flops  1564 x   268 x   268        3677324445696       0.0%    100.0%      0.0%
 flops  1566 x   268 x   268        3682026906624       0.0%    100.0%      0.0%
 flops  1564 x   274 x   274        3843823931904       0.0%    100.0%      0.0%
 flops  1566 x   274 x   274        3848739307776       0.0%    100.0%      0.0%
 flops  1564 x   268 x   288        3951751643136       0.0%    100.0%      0.0%
 flops  1564 x   288 x   268        3951751643136       0.0%    100.0%      0.0%
 flops  1566 x   288 x   268        3956805033984       0.0%    100.0%      0.0%
 flops  1566 x   268 x   288        3956805033984       0.0%    100.0%      0.0%
 flops    13 x    13 x   268        4037146353240       0.0%    100.0%      0.0%
 flops  1564 x   274 x   288        4040223694848       0.0%    100.0%      0.0%
 flops  1564 x   288 x   274        4040223694848       0.0%    100.0%      0.0%
 flops  1566 x   288 x   274        4045390221312       0.0%    100.0%      0.0%
 flops  1566 x   274 x   288        4045390221312       0.0%    100.0%      0.0%
 flops    13 x    13 x   274        4127530226820       0.0%    100.0%      0.0%
 flops   256 x   256 x   256        4255775719424       0.0%    100.0%      0.0%
 flops   256 x   268 x  1564        5210629406720       0.0%    100.0%      0.0%
 flops   268 x   256 x  1564        5210629406720       0.0%    100.0%      0.0%
 flops   256 x   268 x  1566        5217292615680       0.0%    100.0%      0.0%
 flops   268 x   256 x  1566        5217292615680       0.0%    100.0%      0.0%
 flops   256 x   274 x  1564        5327285288960       0.0%    100.0%      0.0%
 flops   274 x   256 x  1564        5327285288960       0.0%    100.0%      0.0%
 flops   256 x   274 x  1566        5334097674240       0.0%    100.0%      0.0%
 flops   274 x   256 x  1566        5334097674240       0.0%    100.0%      0.0%
 flops    26 x    32 x     5        5594128151040       0.0%    100.0%      0.0%
 flops     5 x    32 x    26        5594128151040       0.0%    100.0%      0.0%
 flops   288 x   288 x  1564        6299417640960       0.0%    100.0%      0.0%
 flops   288 x   288 x  1566        6307473162240       0.0%    100.0%      0.0%
 flops     5 x    32 x     5        7009983129600       0.0%    100.0%      0.0%
 flops  1564 x   256 x   268        7025336254464       0.0%    100.0%      0.0%
 flops  1564 x   268 x   256        7025336254464       0.0%    100.0%      0.0%
 flops  1566 x   256 x   268        7034320060416       0.0%    100.0%      0.0%
 flops  1566 x   268 x   256        7034320060416       0.0%    100.0%      0.0%
 flops  1564 x   256 x   274        7182619901952       0.0%    100.0%      0.0%
 flops  1564 x   274 x   256        7182619901952       0.0%    100.0%      0.0%
 flops  1566 x   256 x   274        7191804837888       0.0%    100.0%      0.0%
 flops  1566 x   274 x   256        7191804837888       0.0%    100.0%      0.0%
 flops  1564 x   288 x   288        8493316964352       0.0%    100.0%      0.0%
 flops  1566 x   288 x   288        8504177983488       0.0%    100.0%      0.0%
 flops    13 x    13 x   288        8676851863680       0.0%    100.0%      0.0%
 flops   256 x   288 x  1564       11198964695040       0.0%    100.0%      0.0%
 flops   288 x   256 x  1564       11198964695040       0.0%    100.0%      0.0%
 flops   256 x   288 x  1566       11213285621760       0.0%    100.0%      0.0%
 flops   288 x   256 x  1566       11213285621760       0.0%    100.0%      0.0%
 flops  1564 x   268 x  1564       14380226577408       0.0%    100.0%      0.0%
 flops  1566 x   268 x  1564       14398615613952       0.0%    100.0%      0.0%
 flops  1564 x   268 x  1566       14398615613952       0.0%    100.0%      0.0%
 flops  1566 x   268 x  1566       14417028165888       0.0%    100.0%      0.0%
 flops  1564 x   274 x  1564       14702171948544       0.0%    100.0%      0.0%
 flops  1566 x   274 x  1564       14720972679936       0.0%    100.0%      0.0%
 flops  1564 x   274 x  1566       14720972679936       0.0%    100.0%      0.0%
 flops  1566 x   274 x  1566       14739797453184       0.0%    100.0%      0.0%
 flops  1564 x   256 x   288       15099230158848       0.0%    100.0%      0.0%
 flops  1564 x   288 x   256       15099230158848       0.0%    100.0%      0.0%
 flops  1566 x   288 x   256       15118538637312       0.0%    100.0%      0.0%
 flops  1566 x   256 x   288       15118538637312       0.0%    100.0%      0.0%
 flops    13 x    13 x   256       15425514424320       0.0%    100.0%      0.0%
 flops   256 x   256 x  1564       19909270568960       0.0%    100.0%      0.0%
 flops   256 x   256 x  1566       19934729994240       0.0%    100.0%      0.0%
 flops  1564 x   256 x   256       26843075837952       0.0%    100.0%      0.0%
 flops  1566 x   256 x   256       26877402021888       0.0%    100.0%      0.0%
 flops    26 x    32 x    13       27047562676992       0.0%    100.0%      0.0%
 flops    13 x    32 x    26       27047562676992       0.0%    100.0%      0.0%
 flops    13 x    32 x     5       30841832736000       0.0%    100.0%      0.0%
 flops     5 x    32 x    13       30841832736000       0.0%    100.0%      0.0%
 flops  1564 x   288 x  1564       30906755629056       0.0%    100.0%      0.0%
 flops  1566 x   288 x  1564       30946278334464       0.0%    100.0%      0.0%
 flops  1564 x   288 x  1566       30946278334464       0.0%    100.0%      0.0%
 flops  1566 x   288 x  1566       30985851580416       0.0%    100.0%      0.0%
 flops  1564 x   256 x  1564       54945343340544       0.0%    100.0%      0.0%
 flops  1566 x   256 x  1564       55015605927936       0.0%    100.0%      0.0%
 flops  1564 x   256 x  1566       55015605927936       0.0%    100.0%      0.0%
 flops  1566 x   256 x  1566       55085958365184       0.0%    100.0%      0.0%
 flops    13 x    32 x    13      128552120775936       0.0%    100.0%      0.0%
 flops inhomo. stacks                           0       0.0%      0.0%      0.0%
 flops total                         1.245086E+15       0.0%    100.0%      0.0%
 flops max/rank                     84.397933E+12       0.0%    100.0%      0.0%
 matmuls inhomo. stacks                         0       0.0%      0.0%      0.0%
 matmuls total                        37135842020       0.0%    100.0%      0.0%
 number of processed stacks              48682442       0.0%    100.0%      0.0%
 average stack size                                     0.0     762.8       0.0
 marketing flops                     2.237567E+15
 -------------------------------------------------------------------------------
 # multiplications                          66201
 max memory usage/rank               2.306068E+09
 # max total images/rank                        1
 # max 3D layers                                1
 # MPI messages exchanged                 6355296
 MPI messages size (bytes):
  total size                        20.344421E+12
  min size                           0.000000E+00
  max size                          19.618848E+06
  average size                       3.201176E+06
 MPI breakdown and total messages size (bytes):
             size <=      128               41448                        0
       128 < size <=     8192                   0                        0
      8192 < size <=    32768                   0                        0
     32768 < size <=   131072                3768                256419936
    131072 < size <=  4194304             5540112           12159341434368
   4194304 < size <= 16777216              506736            3022679463840
  16777216 < size                          263232            5157715161600
 -------------------------------------------------------------------------------
 -                                                                             -
 -                      DBCSR MESSAGE PASSING PERFORMANCE                      -
 -                                                                             -
 -------------------------------------------------------------------------------
 ROUTINE             CALLS      AVE VOLUME [Bytes]
 MP_Group             6454
 MP_Bcast              191                     12.
 MP_Allreduce       330036                     24.
 MP_Alltoall        279985                 679875.
 MP_Wait           3177648
 MP_ISend          1057960                1253859.
 MP_IRecv          1057960                1240117.
 MP_Memory         2412178
 -------------------------------------------------------------------------------

 MEMORY| Estimated peak process memory [MiB]                                2200

 -------------------------------------------------------------------------------
 ----                             MULTIGRID INFO                            ----
 -------------------------------------------------------------------------------
 count for grid        1:        1657680          cutoff [a.u.]          180.00
 count for grid        2:         393520          cutoff [a.u.]           60.00
 count for grid        3:         224320          cutoff [a.u.]           20.00
 count for grid        4:          22240          cutoff [a.u.]            6.67
 count for grid        5:            640          cutoff [a.u.]            2.22
 total gridlevel count  :        2298400

 -------------------------------------------------------------------------------
 -                                                                             -
 -                         MESSAGE PASSING PERFORMANCE                         -
 -                                                                             -
 -------------------------------------------------------------------------------

 ROUTINE             CALLS      AVE VOLUME [Bytes]
 MP_Group                6
 MP_Bcast             1235                6813062.
 MP_Allreduce           91                  18149.
 MP_Sync                 5
 -------------------------------------------------------------------------------


 -------------------------------------------------------------------------------
 -                                                                             -
 -                           R E F E R E N C E S                               -
 -                                                                             -
 -------------------------------------------------------------------------------
 
 CP2K version 7.1, the CP2K developers group (2019).
 CP2K is freely available from https://www.cp2k.org/ .

 Schuett, Ole; Messmer, Peter; Hutter, Juerg; VandeVondele, Joost. 
 Electronic Structure Calculations on Graphics Processing Units, John
 Wiley & Sons, Ltd, 173-190 (2016). 
 GPU-Accelerated Sparse Matrix-Matrix Multiplication for
 Linear Scaling Density Functional Theory.
 https://dx.doi.org/10.1002/9781118670712.ch8

 Borstnik, U; VandeVondele, J; Weber, V; Hutter, J. 
 PARALLEL COMPUTING, 40 (5-6), 47-58 (2014). 
 Sparse matrix multiplication: The distributed block-compressed sparse
 row library.
 https://dx.doi.org/10.1016/j.parco.2014.03.012

 Hutter, J; Iannuzzi, M; Schiffmann, F; VandeVondele, J. 
 WIREs Comput Mol Sci., 4 (1), 15-25 (2014). 
 CP2K: atomistic simulations of condensed matter systems.
 https://dx.doi.org/10.1002/wcms.1159

 Grimme, S; Ehrlich, S; Goerigk, L. 
 JOURNAL OF COMPUTATIONAL CHEMISTRY, 32, 1456 (2011). 
 Effect of the damping function in dispersion corrected density functional theory.
 https://dx.doi.org/10.1002/jcc.21759

 Grimme, S; Antony, J; Ehrlich, S; Krieg, H. 
 JOURNAL OF CHEMICAL PHYSICS, 132 (15), 154104 (2010). 
 A consistent and accurate ab initio parametrization of density
 functional dispersion correction (DFT-D) for the 94 elements H-Pu.
 https://dx.doi.org/10.1063/1.3382344

 VandeVondele, J; Hutter, J. 
 JOURNAL OF CHEMICAL PHYSICS, 127 (11), 114105 (2007). 
 Gaussian basis sets for accurate calculations on molecular systems in
 gas and condensed phases.
 https://dx.doi.org/10.1063/1.2770708

 Krack, M. 
 THEORETICAL CHEMISTRY ACCOUNTS, 114 (1-3), 145-152 (2005). 
 Pseudopotentials for H to Kr optimized for gradient-corrected
 exchange-correlation functionals.
 https://dx.doi.org/10.1007/s00214-005-0655-y

 VandeVondele, J; Krack, M; Mohamed, F; Parrinello, M; Chassaing, T;
 Hutter, J. COMPUTER PHYSICS COMMUNICATIONS, 167 (2), 103-128 (2005). 
 QUICKSTEP: Fast and accurate density functional calculations using a
 mixed Gaussian and plane waves approach.
 https://dx.doi.org/10.1016/j.cpc.2004.12.014

 Frigo, M; Johnson, SG. 
 PROCEEDINGS OF THE IEEE, 93 (2), 216-231 (2005). 
 The design and implementation of FFTW3.
 https://dx.doi.org/10.1109/JPROC.2004.840301

 Kolafa, J. 
 JOURNAL OF COMPUTATIONAL CHEMISTRY, 25 (3), 335-342 (2004). 
 Time-reversible always stable predictor-corrector method for molecular dynamics of polarizable molecules.
 https://dx.doi.org/10.1002/jcc.10385

 VandeVondele, J; Hutter, J. 
 JOURNAL OF CHEMICAL PHYSICS, 118 (10), 4365-4369 (2003). 
 An efficient orbital transformation method for electronic structure
 calculations.
 https://dx.doi.org/10.1063/1.1543154

 Hartwigsen, C; Goedecker, S; Hutter, J. 
 PHYSICAL REVIEW B, 58 (7), 3641-3662 (1998). 
 Relativistic separable dual-space Gaussian pseudopotentials from H to Rn.
 https://dx.doi.org/10.1103/PhysRevB.58.3641

 Lippert, G; Hutter, J; Parrinello, M. 
 MOLECULAR PHYSICS, 92 (3), 477-487 (1997). 
 A hybrid Gaussian and plane wave density functional scheme.
 https://dx.doi.org/10.1080/002689797170220

 Perdew, JP; Burke, K; Ernzerhof, M. 
 PHYSICAL REVIEW LETTERS, 77 (18), 3865-3868 (1996). 
 Generalized gradient approximation made simple.
 https://dx.doi.org/10.1103/PhysRevLett.77.3865

 Goedecker, S; Teter, M; Hutter, J. 
 PHYSICAL REVIEW B, 54 (3), 1703-1710 (1996). 
 Separable dual-space Gaussian pseudopotentials.
 https://dx.doi.org/10.1103/PhysRevB.54.1703


 -------------------------------------------------------------------------------
 -                                                                             -
 -                                T I M I N G                                  -
 -                                                                             -
 -------------------------------------------------------------------------------
 SUBROUTINE                       CALLS  ASD         SELF TIME        TOTAL TIME
                                MAXIMUM       AVERAGE  MAXIMUM  AVERAGE  MAXIMUM
 CP2K                                 1  1.0     0.08     0.10 93685.13 93685.27
 vb_anal                              1  2.0 93679.42 93679.56 93682.41 93682.56
 -------------------------------------------------------------------------------

 The number of warnings for this run is : 0
 
 -------------------------------------------------------------------------------
  **** **** ******  **  PROGRAM ENDED AT                 2021-11-26 05:50:01.779
 ***** ** ***  *** **   PROGRAM RAN ON             node1921.palmetto.clemson.edu
 **    ****   ******    PROGRAM RAN BY                                   svicchi
 ***** **    ** ** **   PROGRAM PROCESS ID                               2890265
  **** **  *******  **  PROGRAM STOPPED IN  /scratch2/svicchi/CP2K-4057890.pbs02
