 DBCSR| CPU Multiplication driver                                           XSMM
 DBCSR| Multrec recursion limit                                              512
 DBCSR| Multiplication stack size                                           1000
 DBCSR| Maximum elements for images                                    UNLIMITED
 DBCSR| Multiplicative factor virtual images                                   1
 DBCSR| Use multiplication densification                                       T
 DBCSR| Multiplication size stacks                                             3
 DBCSR| Number of 3D layers                                               SINGLE
 DBCSR| Use MPI memory allocation                                              T
 DBCSR| Use RMA algorithm                                                      F
 DBCSR| Use Communication thread                                               T
 DBCSR| Communication thread load                                             87


  **** **** ******  **  PROGRAM STARTED AT               2021-11-21 17:15:46.897
 ***** ** ***  *** **   PROGRAM STARTED ON         node1196.palmetto.clemson.edu
 **    ****   ******    PROGRAM STARTED BY                               svicchi
 ***** **    ** ** **   PROGRAM PROCESS ID                                230327
  **** **  *******  **  PROGRAM STARTED IN  /scratch2/svicchi/CP2K-4052816.pbs02

 CP2K| version string:                                          CP2K version 7.1
 CP2K| source code revision number:                                  git:e635599
 CP2K| cp2kflags: libint fftw3 libxc parallel mpi3 scalapack xsmm               
 CP2K| is freely available from                            https://www.cp2k.org/
 CP2K| Program compiled at                          Wed Aug 12 10:01:37 EDT 2020
 CP2K| Program compiled on                           util02.palmetto.clemson.edu
 CP2K| Program compiled for                          linux-centos8-ivybridge-gcc
 CP2K| Data directory path    /software/spackages/linux-centos8-ivybridge/gcc-8.
 CP2K| Input file name                172_Zr18_C264_Ni4_O101_H182_UKS-multi9.inp

 GLOBAL| Force Environment number                                              1
 GLOBAL| Basis set file name                                          BASIS_file
 GLOBAL| Potential file name                                     POTENTIALS_file
 GLOBAL| MM Potential file name                                     MM_POTENTIAL
 GLOBAL| Coordinate file name           172_Zr18_C264_Ni4_O101_H182_UKS-multi9.x
 GLOBAL| Method name                                                        CP2K
 GLOBAL| Project name                   info-060-172_Zr18_C264_Ni4_O101_H182_UKS
 GLOBAL| Preferred FFT library                                             FFTW3
 GLOBAL| Preferred diagonalization lib.                                       SL
 GLOBAL| Run type                                           VIBRATIONAL_ANALYSIS
 GLOBAL| All-to-all communication in single precision                          F
 GLOBAL| FFTs using library dependent lengths                                  F
 GLOBAL| Global print level                                               MEDIUM
 GLOBAL| MPI I/O enabled                                                       T
 GLOBAL| Total number of message passing processes                            16
 GLOBAL| Number of threads for this process                                    1
 GLOBAL| This output is from process                                           0
 GLOBAL| CPU model name                Intel(R) Xeon(R) CPU E5-2670 v2 @ 2.50GHz
 GLOBAL| CPUID                                                              1001

 MEMORY| system memory details [Kb]
 MEMORY|                        rank 0           min           max       average
 MEMORY| MemTotal            131713748     131713748     131713748     131713748
 MEMORY| MemFree             125668664     125620528     125670740     125645504
 MEMORY| Buffers                  5216          5216          5216          5216
 MEMORY| Cached                2314452       2314452       2314452       2314452
 MEMORY| Slab                   765348        765348        765348        765348
 MEMORY| SReclaimable           335860        335860        335860        335860
 MEMORY| MemLikelyFree       128324192     128276056     128326268     128301032


 *** Fundamental physical constants (SI units) ***

 *** Literature: B. J. Mohr and B. N. Taylor,
 ***             CODATA recommended values of the fundamental physical
 ***             constants: 2006, Web Version 5.1
 ***             http://physics.nist.gov/constants

 Speed of light in vacuum [m/s]                             2.99792458000000E+08
 Magnetic constant or permeability of vacuum [N/A**2]       1.25663706143592E-06
 Electric constant or permittivity of vacuum [F/m]          8.85418781762039E-12
 Planck constant (h) [J*s]                                  6.62606896000000E-34
 Planck constant (h-bar) [J*s]                              1.05457162825177E-34
 Elementary charge [C]                                      1.60217648700000E-19
 Electron mass [kg]                                         9.10938215000000E-31
 Electron g factor [ ]                                     -2.00231930436220E+00
 Proton mass [kg]                                           1.67262163700000E-27
 Fine-structure constant                                    7.29735253760000E-03
 Rydberg constant [1/m]                                     1.09737315685270E+07
 Avogadro constant [1/mol]                                  6.02214179000000E+23
 Boltzmann constant [J/K]                                   1.38065040000000E-23
 Atomic mass unit [kg]                                      1.66053878200000E-27
 Bohr radius [m]                                            5.29177208590000E-11

 *** Conversion factors ***

 [u] -> [a.u.]                                              1.82288848426455E+03
 [Angstrom] -> [Bohr] = [a.u.]                              1.88972613288564E+00
 [a.u.] = [Bohr] -> [Angstrom]                              5.29177208590000E-01
 [a.u.] -> [s]                                              2.41888432650478E-17
 [a.u.] -> [fs]                                             2.41888432650478E-02
 [a.u.] -> [J]                                              4.35974393937059E-18
 [a.u.] -> [N]                                              8.23872205491840E-08
 [a.u.] -> [K]                                              3.15774647902944E+05
 [a.u.] -> [kJ/mol]                                         2.62549961709828E+03
 [a.u.] -> [kcal/mol]                                       6.27509468713739E+02
 [a.u.] -> [Pa]                                             2.94210107994716E+13
 [a.u.] -> [bar]                                            2.94210107994716E+08
 [a.u.] -> [atm]                                            2.90362800883016E+08
 [a.u.] -> [eV]                                             2.72113838565563E+01
 [a.u.] -> [Hz]                                             6.57968392072181E+15
 [a.u.] -> [1/cm] (wave numbers)                            2.19474631370540E+05
 [a.u./Bohr**2] -> [1/cm]                                   5.14048714338585E+03
 

 CELL_TOP| Volume [angstrom^3]:                                        22838.217
 CELL_TOP| Vector a [angstrom    40.611     0.000     0.000    |a| =      40.611
 CELL_TOP| Vector b [angstrom    20.305    35.170     0.000    |b| =      40.611
 CELL_TOP| Vector c [angstrom     0.000     0.000    15.990    |c| =      15.990
 CELL_TOP| Angle (b,c), alpha [degree]:                                   90.000
 CELL_TOP| Angle (a,c), beta  [degree]:                                   90.000
 CELL_TOP| Angle (a,b), gamma [degree]:                                   60.000
 CELL_TOP| Requested initial symmetry:                       MONOCLINIC_GAMMA_AB
 CELL_TOP| Numerically orthorhombic:                                          NO

 CELL| Volume [angstrom^3]:                                            22838.217
 CELL| Vector a [angstrom]:      40.611     0.000     0.000    |a| =      40.611
 CELL| Vector b [angstrom]:      20.305    35.170     0.000    |b| =      40.611
 CELL| Vector c [angstrom]:       0.000     0.000    15.990    |c| =      15.990
 CELL| Angle (b,c), alpha [degree]:                                       90.000
 CELL| Angle (a,c), beta  [degree]:                                       90.000
 CELL| Angle (a,b), gamma [degree]:                                       60.000
 CELL| Requested initial symmetry:                           MONOCLINIC_GAMMA_AB
 CELL| Numerically orthorhombic:                                              NO

 CELL_REF| Volume [angstrom^3]:                                        22838.217
 CELL_REF| Vector a [angstrom    40.611     0.000     0.000    |a| =      40.611
 CELL_REF| Vector b [angstrom    20.305    35.170     0.000    |b| =      40.611
 CELL_REF| Vector c [angstrom     0.000     0.000    15.990    |c| =      15.990
 CELL_REF| Angle (b,c), alpha [degree]:                                   90.000
 CELL_REF| Angle (a,c), beta  [degree]:                                   90.000
 CELL_REF| Angle (a,b), gamma [degree]:                                   60.000
 CELL_REF| Requested initial symmetry:                       MONOCLINIC_GAMMA_AB
 CELL_REF| Numerically orthorhombic:                                          NO

 *******************************************************************************
 *******************************************************************************
 **                                                                           **
 **     #####                         ##              ##                      **
 **    ##   ##            ##          ##              ##                      **
 **   ##     ##                       ##            ######                    **
 **   ##     ##  ##   ##  ##   #####  ##  ##   ####   ##    #####    #####    **
 **   ##     ##  ##   ##  ##  ##      ## ##   ##      ##   ##   ##  ##   ##   **
 **   ##  ## ##  ##   ##  ##  ##      ####     ###    ##   ######   ######    **
 **    ##  ###   ##   ##  ##  ##      ## ##      ##   ##   ##       ##        **
 **     #######   #####   ##   #####  ##  ##  ####    ##    #####   ##        **
 **           ##                                                    ##        **
 **                                                                           **
 **                                                ... make the atoms dance   **
 **                                                                           **
 **            Copyright (C) by CP2K developers group (2000 - 2019)           **
 **                                                                           **
 *******************************************************************************

 DFT| Spin unrestricted (spin-polarized) Kohn-Sham calculation               UKS
 DFT| Multiplicity                                                             9
 DFT| Number of spin states                                                    2
 DFT| Charge                                                                   0
 DFT| Self-interaction correction (SIC)                                       NO
 DFT| Cutoffs: density                                              1.000000E-10
 DFT|          gradient                                             1.000000E-10
 DFT|          tau                                                  1.000000E-10
 DFT|          cutoff_smoothing_range                               0.000000E+00
 DFT| XC density smoothing                                                  NONE
 DFT| XC derivatives                                                          PW
 FUNCTIONAL| ROUTINE=NEW
 FUNCTIONAL| PBE:
 FUNCTIONAL| J.P.Perdew, K.Burke, M.Ernzerhof, Phys. Rev. Letter, vol. 77, n 18,
 FUNCTIONAL|  pp. 3865-3868, (1996){spin polarized}                             
 vdW POTENTIAL|                                                   Pair Potential
 vdW POTENTIAL|          DFT-D3 (Version 3.1)
 vdW POTENTIAL|          Potential Form: S. Grimme et al, JCP 132: 154104 (2010)
 vdW POTENTIAL|          BJ Damping: S. Grimme et al, JCC 32: 1456 (2011)
 vdW POTENTIAL|          Cutoff Radius [Bohr]:                             20.00
 vdW POTENTIAL|          s6 Scaling Factor:                               1.0000
 vdW POTENTIAL|          a1 Damping Factor:                               0.4289
 vdW POTENTIAL|          s8 Scaling Factor:                               0.7875
 vdW POTENTIAL|          a2 Damping Factor:                               4.4407
 vdW POTENTIAL|          Cutoff for CN calculation:                   0.1000E-05

 QS| Method:                                                                 GPW
 QS| Density plane wave grid type                        NON-SPHERICAL FULLSPACE
 QS| Number of grid levels:                                                    5
 QS| Density cutoff [a.u.]:                                                180.0
 QS| Multi grid cutoff [a.u.]: 1) grid level                               180.0
 QS|                           2) grid level                                60.0
 QS|                           3) grid level                                20.0
 QS|                           4) grid level                                 6.7
 QS|                           5) grid level                                 2.2
 QS| Grid level progression factor:                                          3.0
 QS| Relative density cutoff [a.u.]:                                        40.0
 QS| Consistent realspace mapping and integration 
 QS| Interaction thresholds: eps_pgf_orb:                                1.0E-05
 QS|                         eps_filter_matrix:                          0.0E+00
 QS|                         eps_core_charge:                            1.0E-12
 QS|                         eps_rho_gspace:                             1.0E-10
 QS|                         eps_rho_rspace:                             1.0E-10
 QS|                         eps_gvg_rspace:                             1.0E-05
 QS|                         eps_ppl:                                    1.0E-02
 QS|                         eps_ppnl:                                   1.0E-07


 ATOMIC KIND INFORMATION

  1. Atomic kind: C                                     Number of atoms:     264

     Orbital Basis Set                                     DZVP-MOLOPT-SR-GTH-q4

       Number of orbital shell sets:                                           1
       Number of orbital shells:                                               5
       Number of primitive Cartesian functions:                                5
       Number of Cartesian basis functions:                                   14
       Number of spherical basis functions:                                   13
       Norm type:                                                              2

       Normalised Cartesian orbitals:

                        Set   Shell   Orbital            Exponent    Coefficient

                          1       1    2s                5.605331       0.322515
                                                         2.113016       0.213043
                                                         0.769911      -0.209686
                                                         0.348157      -0.219794
                                                         0.128212      -0.022789

                          1       2    3s                5.605331       0.552234
                                                         2.113016       0.082072
                                                         0.769911       0.007843
                                                         0.348157       0.136893
                                                         0.128212       0.074283

                          1       3    3px               5.605331      -0.703879
                                                         2.113016      -0.642521
                                                         0.769911      -0.374851
                                                         0.348157      -0.139743
                                                         0.128212      -0.027849
                          1       3    3py               5.605331      -0.703879
                                                         2.113016      -0.642521
                                                         0.769911      -0.374851
                                                         0.348157      -0.139743
                                                         0.128212      -0.027849
                          1       3    3pz               5.605331      -0.703879
                                                         2.113016      -0.642521
                                                         0.769911      -0.374851
                                                         0.348157      -0.139743
                                                         0.128212      -0.027849

                          1       4    4px               5.605331      -0.480376
                                                         2.113016      -0.552894
                                                         0.769911      -0.316145
                                                         0.348157       0.210505
                                                         0.128212       0.076095
                          1       4    4py               5.605331      -0.480376
                                                         2.113016      -0.552894
                                                         0.769911      -0.316145
                                                         0.348157       0.210505
                                                         0.128212       0.076095
                          1       4    4pz               5.605331      -0.480376
                                                         2.113016      -0.552894
                                                         0.769911      -0.316145
                                                         0.348157       0.210505
                                                         0.128212       0.076095

                          1       5    4dx2              5.605331       0.640026
                                                         2.113016       0.274300
                                                         0.769911       0.446711
                                                         0.348157       0.028674
                                                         0.128212       0.029790
                          1       5    4dxy              5.605331       1.108557
                                                         2.113016       0.475102
                                                         0.769911       0.773726
                                                         0.348157       0.049666
                                                         0.128212       0.051599
                          1       5    4dxz              5.605331       1.108557
                                                         2.113016       0.475102
                                                         0.769911       0.773726
                                                         0.348157       0.049666
                                                         0.128212       0.051599
                          1       5    4dy2              5.605331       0.640026
                                                         2.113016       0.274300
                                                         0.769911       0.446711
                                                         0.348157       0.028674
                                                         0.128212       0.029790
                          1       5    4dyz              5.605331       1.108557
                                                         2.113016       0.475102
                                                         0.769911       0.773726
                                                         0.348157       0.049666
                                                         0.128212       0.051599
                          1       5    4dz2              5.605331       0.640026
                                                         2.113016       0.274300
                                                         0.769911       0.446711
                                                         0.348157       0.028674
                                                         0.128212       0.029790

     GTH Potential information for                                    GTH-PBE-q4

       Description:                       Goedecker-Teter-Hutter pseudopotential
                                           Goedecker et al., PRB 54, 1703 (1996)
                                          Hartwigsen et al., PRB 58, 3641 (1998)
                                                      Krack, TCA 114, 145 (2005)

       Gaussian exponent of the core charge distribution:               4.364419
       Electronic configuration (s p d ...):                               2   2

       Parameters of the local part of the GTH pseudopotential:

                          rloc        C1          C2          C3          C4
                        0.338471   -8.803674    1.339211

       Parameters of the non-local part of the GTH pseudopotential:

                   l      r(l)      h(i,j,l)

                   0    0.302576    9.622487
                   1    0.291507

  2. Atomic kind: Zr                                    Number of atoms:      18

     Orbital Basis Set                                    DZVP-MOLOPT-SR-GTH-q12

       Number of orbital shell sets:                                           1
       Number of orbital shells:                                               8
       Number of primitive Cartesian functions:                                7
       Number of Cartesian basis functions:                                   31
       Number of spherical basis functions:                                   26
       Norm type:                                                              2

       Normalised Cartesian orbitals:

                        Set   Shell   Orbital            Exponent    Coefficient

                          1       1    2s                7.568386      -0.292925
                                                         2.940870       1.053802
                                                         1.478550      -0.194175
                                                         0.699653      -0.477593
                                                         0.314575      -0.092850
                                                         0.129869       0.000474
                                                         0.046851      -0.000485

                          1       2    3s                7.568386      -0.107602
                                                         2.940870       0.453694
                                                         1.478550      -0.133469
                                                         0.699653      -0.242646
                                                         0.314575      -0.112324
                                                         0.129869       0.079936
                                                         0.046851       0.057275

                          1       3    4s                7.568386      -0.039443
                                                         2.940870      -0.239516
                                                         1.478550       0.462939
                                                         0.699653       0.054202
                                                         0.314575       0.378792
                                                         0.129869      -0.467495
                                                         0.046851       0.135277

                          1       4    3px               7.568386      -0.367032
                                                         2.940870       1.199938
                                                         1.478550      -0.729727
                                                         0.699653      -0.527717
                                                         0.314575      -0.102074
                                                         0.129869      -0.002163
                                                         0.046851      -0.000016
                          1       4    3py               7.568386      -0.367032
                                                         2.940870       1.199938
                                                         1.478550      -0.729727
                                                         0.699653      -0.527717
                                                         0.314575      -0.102074
                                                         0.129869      -0.002163
                                                         0.046851      -0.000016
                          1       4    3pz               7.568386      -0.367032
                                                         2.940870       1.199938
                                                         1.478550      -0.729727
                                                         0.699653      -0.527717
                                                         0.314575      -0.102074
                                                         0.129869      -0.002163
                                                         0.046851      -0.000016

                          1       5    4px               7.568386      -0.041149
                                                         2.940870       0.296409
                                                         1.478550      -0.285807
                                                         0.699653      -0.254468
                                                         0.314575       0.008755
                                                         0.129869       0.053085
                                                         0.046851       0.019526
                          1       5    4py               7.568386      -0.041149
                                                         2.940870       0.296409
                                                         1.478550      -0.285807
                                                         0.699653      -0.254468
                                                         0.314575       0.008755
                                                         0.129869       0.053085
                                                         0.046851       0.019526
                          1       5    4pz               7.568386      -0.041149
                                                         2.940870       0.296409
                                                         1.478550      -0.285807
                                                         0.699653      -0.254468
                                                         0.314575       0.008755
                                                         0.129869       0.053085
                                                         0.046851       0.019526

                          1       6    4dx2              7.568386      -0.104612
                                                         2.940870      -0.141339
                                                         1.478550       0.540679
                                                         0.699653       0.284252
                                                         0.314575       0.094561
                                                         0.129869       0.012195
                                                         0.046851       0.000412
                          1       6    4dxy              7.568386      -0.181193
                                                         2.940870      -0.244806
                                                         1.478550       0.936483
                                                         0.699653       0.492339
                                                         0.314575       0.163785
                                                         0.129869       0.021122
                                                         0.046851       0.000713
                          1       6    4dxz              7.568386      -0.181193
                                                         2.940870      -0.244806
                                                         1.478550       0.936483
                                                         0.699653       0.492339
                                                         0.314575       0.163785
                                                         0.129869       0.021122
                                                         0.046851       0.000713
                          1       6    4dy2              7.568386      -0.104612
                                                         2.940870      -0.141339
                                                         1.478550       0.540679
                                                         0.699653       0.284252
                                                         0.314575       0.094561
                                                         0.129869       0.012195
                                                         0.046851       0.000412
                          1       6    4dyz              7.568386      -0.181193
                                                         2.940870      -0.244806
                                                         1.478550       0.936483
                                                         0.699653       0.492339
                                                         0.314575       0.163785
                                                         0.129869       0.021122
                                                         0.046851       0.000713
                          1       6    4dz2              7.568386      -0.104612
                                                         2.940870      -0.141339
                                                         1.478550       0.540679
                                                         0.699653       0.284252
                                                         0.314575       0.094561
                                                         0.129869       0.012195
                                                         0.046851       0.000412

                          1       7    5dx2              7.568386      -0.107600
                                                         2.940870       0.230973
                                                         1.478550      -0.200541
                                                         0.699653      -0.193347
                                                         0.314575       0.007888
                                                         0.129869       0.006706
                                                         0.046851       0.006900
                          1       7    5dxy              7.568386      -0.186369
                                                         2.940870       0.400056
                                                         1.478550      -0.347346
                                                         0.699653      -0.334887
                                                         0.314575       0.013663
                                                         0.129869       0.011615
                                                         0.046851       0.011951
                          1       7    5dxz              7.568386      -0.186369
                                                         2.940870       0.400056
                                                         1.478550      -0.347346
                                                         0.699653      -0.334887
                                                         0.314575       0.013663
                                                         0.129869       0.011615
                                                         0.046851       0.011951
                          1       7    5dy2              7.568386      -0.107600
                                                         2.940870       0.230973
                                                         1.478550      -0.200541
                                                         0.699653      -0.193347
                                                         0.314575       0.007888
                                                         0.129869       0.006706
                                                         0.046851       0.006900
                          1       7    5dyz              7.568386      -0.186369
                                                         2.940870       0.400056
                                                         1.478550      -0.347346
                                                         0.699653      -0.334887
                                                         0.314575       0.013663
                                                         0.129869       0.011615
                                                         0.046851       0.011951
                          1       7    5dz2              7.568386      -0.107600
                                                         2.940870       0.230973
                                                         1.478550      -0.200541
                                                         0.699653      -0.193347
                                                         0.314575       0.007888
                                                         0.129869       0.006706
                                                         0.046851       0.006900

                          1       8    5fx3              7.568386       0.371480
                                                         2.940870      -0.155968
                                                         1.478550      -0.211323
                                                         0.699653      -0.255968
                                                         0.314575      -0.046738
                                                         0.129869      -0.005674
                                                         0.046851       0.000171
                          1       8    5fx2y             7.568386       0.830655
                                                         2.940870      -0.348756
                                                         1.478550      -0.472533
                                                         0.699653      -0.572361
                                                         0.314575      -0.104510
                                                         0.129869      -0.012687
                                                         0.046851       0.000382
                          1       8    5fx2z             7.568386       0.830655
                                                         2.940870      -0.348756
                                                         1.478550      -0.472533
                                                         0.699653      -0.572361
                                                         0.314575      -0.104510
                                                         0.129869      -0.012687
                                                         0.046851       0.000382
                          1       8    5fxy2             7.568386       0.830655
                                                         2.940870      -0.348756
                                                         1.478550      -0.472533
                                                         0.699653      -0.572361
                                                         0.314575      -0.104510
                                                         0.129869      -0.012687
                                                         0.046851       0.000382
                          1       8    5fxyz             7.568386       1.438737
                                                         2.940870      -0.604063
                                                         1.478550      -0.818452
                                                         0.699653      -0.991359
                                                         0.314575      -0.181017
                                                         0.129869      -0.021975
                                                         0.046851       0.000662
                          1       8    5fxz2             7.568386       0.830655
                                                         2.940870      -0.348756
                                                         1.478550      -0.472533
                                                         0.699653      -0.572361
                                                         0.314575      -0.104510
                                                         0.129869      -0.012687
                                                         0.046851       0.000382
                          1       8    5fy3              7.568386       0.371480
                                                         2.940870      -0.155968
                                                         1.478550      -0.211323
                                                         0.699653      -0.255968
                                                         0.314575      -0.046738
                                                         0.129869      -0.005674
                                                         0.046851       0.000171
                          1       8    5fy2z             7.568386       0.830655
                                                         2.940870      -0.348756
                                                         1.478550      -0.472533
                                                         0.699653      -0.572361
                                                         0.314575      -0.104510
                                                         0.129869      -0.012687
                                                         0.046851       0.000382
                          1       8    5fyz2             7.568386       0.830655
                                                         2.940870      -0.348756
                                                         1.478550      -0.472533
                                                         0.699653      -0.572361
                                                         0.314575      -0.104510
                                                         0.129869      -0.012687
                                                         0.046851       0.000382
                          1       8    5fz3              7.568386       0.371480
                                                         2.940870      -0.155968
                                                         1.478550      -0.211323
                                                         0.699653      -0.255968
                                                         0.314575      -0.046738
                                                         0.129869      -0.005674
                                                         0.046851       0.000171

     GTH Potential information for                                   GTH-PBE-q12

       Description:                       Goedecker-Teter-Hutter pseudopotential
                                           Goedecker et al., PRB 54, 1703 (1996)
                                          Hartwigsen et al., PRB 58, 3641 (1998)
                                                      Krack, TCA 114, 145 (2005)

       Gaussian exponent of the core charge distribution:               2.263468
       Electronic configuration (s p d ...):                           4   6   2

       Parameters of the local part of the GTH pseudopotential:

                          rloc        C1          C2          C3          C4
                        0.470000    7.796057   -1.893210

       Parameters of the non-local part of the GTH pseudopotential:

                   l      r(l)      h(i,j,l)

                   0    0.259829   23.380874   -8.571939
                                   -8.571939   11.066326
                   1    0.288969    8.592766   -5.377358
                                   -5.377358    6.362576
                   2    0.581245    0.027811    0.276862
                                    0.276862   -0.313932

  3. Atomic kind: H                                     Number of atoms:     182

     Orbital Basis Set                                     DZVP-MOLOPT-SR-GTH-q1

       Number of orbital shell sets:                                           1
       Number of orbital shells:                                               3
       Number of primitive Cartesian functions:                                5
       Number of Cartesian basis functions:                                    5
       Number of spherical basis functions:                                    5
       Norm type:                                                              2

       Normalised Cartesian orbitals:

                        Set   Shell   Orbital            Exponent    Coefficient

                          1       1    2s               10.068468      -0.133023
                                                         2.680223      -0.177618
                                                         0.791502      -0.258419
                                                         0.239116      -0.107525
                                                         0.082193      -0.014019

                          1       2    3s               10.068468       0.344673
                                                         2.680223       1.819821
                                                         0.791502      -0.999069
                                                         0.239116       0.017430
                                                         0.082193       0.082660

                          1       3    3px              10.068468       0.155326
                                                         2.680223       0.367157
                                                         0.791502       0.311480
                                                         0.239116       0.080105
                                                         0.082193       0.033440
                          1       3    3py              10.068468       0.155326
                                                         2.680223       0.367157
                                                         0.791502       0.311480
                                                         0.239116       0.080105
                                                         0.082193       0.033440
                          1       3    3pz              10.068468       0.155326
                                                         2.680223       0.367157
                                                         0.791502       0.311480
                                                         0.239116       0.080105
                                                         0.082193       0.033440

     GTH Potential information for                                    GTH-PBE-q1

       Description:                       Goedecker-Teter-Hutter pseudopotential
                                           Goedecker et al., PRB 54, 1703 (1996)
                                          Hartwigsen et al., PRB 58, 3641 (1998)
                                                      Krack, TCA 114, 145 (2005)

       Gaussian exponent of the core charge distribution:              12.500000
       Electronic configuration (s p d ...):                                   1

       Parameters of the local part of the GTH pseudopotential:

                          rloc        C1          C2          C3          C4
                        0.200000   -4.178900    0.724463

  4. Atomic kind: O                                     Number of atoms:     101

     Orbital Basis Set                                     DZVP-MOLOPT-SR-GTH-q6

       Number of orbital shell sets:                                           1
       Number of orbital shells:                                               5
       Number of primitive Cartesian functions:                                5
       Number of Cartesian basis functions:                                   14
       Number of spherical basis functions:                                   13
       Norm type:                                                              2

       Normalised Cartesian orbitals:

                        Set   Shell   Orbital            Exponent    Coefficient

                          1       1    2s               10.389228       0.396646
                                                         3.849621       0.208811
                                                         1.388401      -0.301641
                                                         0.496955      -0.274061
                                                         0.162492      -0.033677

                          1       2    3s               10.389228       0.303673
                                                         3.849621       0.240943
                                                         1.388401      -0.313066
                                                         0.496955      -0.043055
                                                         0.162492       0.213991

                          1       3    3px              10.389228      -1.530415
                                                         3.849621      -1.371928
                                                         1.388401      -0.761951
                                                         0.496955      -0.253695
                                                         0.162492      -0.035541
                          1       3    3py              10.389228      -1.530415
                                                         3.849621      -1.371928
                                                         1.388401      -0.761951
                                                         0.496955      -0.253695
                                                         0.162492      -0.035541
                          1       3    3pz              10.389228      -1.530415
                                                         3.849621      -1.371928
                                                         1.388401      -0.761951
                                                         0.496955      -0.253695
                                                         0.162492      -0.035541

                          1       4    4px              10.389228      -0.565392
                                                         3.849621      -0.038231
                                                         1.388401      -0.382373
                                                         0.496955       0.179070
                                                         0.162492       0.122714
                          1       4    4py              10.389228      -0.565392
                                                         3.849621      -0.038231
                                                         1.388401      -0.382373
                                                         0.496955       0.179070
                                                         0.162492       0.122714
                          1       4    4pz              10.389228      -0.565392
                                                         3.849621      -0.038231
                                                         1.388401      -0.382373
                                                         0.496955       0.179070
                                                         0.162492       0.122714

                          1       5    4dx2             10.389228       1.867377
                                                         3.849621       0.670994
                                                         1.388401       1.353441
                                                         0.496955       0.273538
                                                         0.162492       0.006620
                          1       5    4dxy             10.389228       3.234392
                                                         3.849621       1.162195
                                                         1.388401       2.344229
                                                         0.496955       0.473781
                                                         0.162492       0.011466
                          1       5    4dxz             10.389228       3.234392
                                                         3.849621       1.162195
                                                         1.388401       2.344229
                                                         0.496955       0.473781
                                                         0.162492       0.011466
                          1       5    4dy2             10.389228       1.867377
                                                         3.849621       0.670994
                                                         1.388401       1.353441
                                                         0.496955       0.273538
                                                         0.162492       0.006620
                          1       5    4dyz             10.389228       3.234392
                                                         3.849621       1.162195
                                                         1.388401       2.344229
                                                         0.496955       0.473781
                                                         0.162492       0.011466
                          1       5    4dz2             10.389228       1.867377
                                                         3.849621       0.670994
                                                         1.388401       1.353441
                                                         0.496955       0.273538
                                                         0.162492       0.006620

     GTH Potential information for                                    GTH-PBE-q6

       Description:                       Goedecker-Teter-Hutter pseudopotential
                                           Goedecker et al., PRB 54, 1703 (1996)
                                          Hartwigsen et al., PRB 58, 3641 (1998)
                                                      Krack, TCA 114, 145 (2005)

       Gaussian exponent of the core charge distribution:               8.360253
       Electronic configuration (s p d ...):                               2   4

       Parameters of the local part of the GTH pseudopotential:

                          rloc        C1          C2          C3          C4
                        0.244554  -16.667215    2.487311

       Parameters of the non-local part of the GTH pseudopotential:

                   l      r(l)      h(i,j,l)

                   0    0.220956   18.337458
                   1    0.211332

  5. Atomic kind: Ni                                    Number of atoms:       4

     Orbital Basis Set                                    DZVP-MOLOPT-SR-GTH-q18

       Number of orbital shell sets:                                           1
       Number of orbital shells:                                               8
       Number of primitive Cartesian functions:                                6
       Number of Cartesian basis functions:                                   31
       Number of spherical basis functions:                                   26
       Norm type:                                                              2

       Normalised Cartesian orbitals:

                        Set   Shell   Orbital            Exponent    Coefficient

                          1       1    2s               10.077428      -0.684558
                                                         5.847736      -0.844524
                                                         2.494033       1.088856
                                                         0.988355       0.395503
                                                         0.344978       0.010224
                                                         0.099466      -0.003250

                          1       2    3s               10.077428       0.096747
                                                         5.847736       0.162504
                                                         2.494033      -0.297192
                                                         0.988355      -0.319752
                                                         0.344978       0.088318
                                                         0.099466       0.118587

                          1       3    4s               10.077428       0.036437
                                                         5.847736      -0.381480
                                                         2.494033       0.003759
                                                         0.988355      -1.048256
                                                         0.344978       0.855825
                                                         0.099466      -0.176350

                          1       4    3px              10.077428      -3.133913
                                                         5.847736       3.027656
                                                         2.494033       2.353227
                                                         0.988355       0.554184
                                                         0.344978       0.019462
                                                         0.099466      -0.000291
                          1       4    3py              10.077428      -3.133913
                                                         5.847736       3.027656
                                                         2.494033       2.353227
                                                         0.988355       0.554184
                                                         0.344978       0.019462
                                                         0.099466      -0.000291
                          1       4    3pz              10.077428      -3.133913
                                                         5.847736       3.027656
                                                         2.494033       2.353227
                                                         0.988355       0.554184
                                                         0.344978       0.019462
                                                         0.099466      -0.000291

                          1       5    4px              10.077428      -0.112729
                                                         5.847736      -0.114008
                                                         2.494033      -0.347303
                                                         0.988355      -0.110323
                                                         0.344978       0.154096
                                                         0.099466       0.058386
                          1       5    4py              10.077428      -0.112729
                                                         5.847736      -0.114008
                                                         2.494033      -0.347303
                                                         0.988355      -0.110323
                                                         0.344978       0.154096
                                                         0.099466       0.058386
                          1       5    4pz              10.077428      -0.112729
                                                         5.847736      -0.114008
                                                         2.494033      -0.347303
                                                         0.988355      -0.110323
                                                         0.344978       0.154096
                                                         0.099466       0.058386

                          1       6    4dx2             10.077428       8.232726
                                                         5.847736       9.105758
                                                         2.494033       2.849835
                                                         0.988355       0.554319
                                                         0.344978       0.067245
                                                         0.099466       0.001940
                          1       6    4dxy             10.077428      14.259500
                                                         5.847736      15.771636
                                                         2.494033       4.936060
                                                         0.988355       0.960109
                                                         0.344978       0.116472
                                                         0.099466       0.003360
                          1       6    4dxz             10.077428      14.259500
                                                         5.847736      15.771636
                                                         2.494033       4.936060
                                                         0.988355       0.960109
                                                         0.344978       0.116472
                                                         0.099466       0.003360
                          1       6    4dy2             10.077428       8.232726
                                                         5.847736       9.105758
                                                         2.494033       2.849835
                                                         0.988355       0.554319
                                                         0.344978       0.067245
                                                         0.099466       0.001940
                          1       6    4dyz             10.077428      14.259500
                                                         5.847736      15.771636
                                                         2.494033       4.936060
                                                         0.988355       0.960109
                                                         0.344978       0.116472
                                                         0.099466       0.003360
                          1       6    4dz2             10.077428       8.232726
                                                         5.847736       9.105758
                                                         2.494033       2.849835
                                                         0.988355       0.554319
                                                         0.344978       0.067245
                                                         0.099466       0.001940

                          1       7    5dx2             10.077428      -2.715373
                                                         5.847736      -4.020640
                                                         2.494033      -1.397569
                                                         0.988355      -0.076143
                                                         0.344978       0.033435
                                                         0.099466       0.026032
                          1       7    5dxy             10.077428      -4.703164
                                                         5.847736      -6.963952
                                                         2.494033      -2.420661
                                                         0.988355      -0.131883
                                                         0.344978       0.057911
                                                         0.099466       0.045088
                          1       7    5dxz             10.077428      -4.703164
                                                         5.847736      -6.963952
                                                         2.494033      -2.420661
                                                         0.988355      -0.131883
                                                         0.344978       0.057911
                                                         0.099466       0.045088
                          1       7    5dy2             10.077428      -2.715373
                                                         5.847736      -4.020640
                                                         2.494033      -1.397569
                                                         0.988355      -0.076143
                                                         0.344978       0.033435
                                                         0.099466       0.026032
                          1       7    5dyz             10.077428      -4.703164
                                                         5.847736      -6.963952
                                                         2.494033      -2.420661
                                                         0.988355      -0.131883
                                                         0.344978       0.057911
                                                         0.099466       0.045088
                          1       7    5dz2             10.077428      -2.715373
                                                         5.847736      -4.020640
                                                         2.494033      -1.397569
                                                         0.988355      -0.076143
                                                         0.344978       0.033435
                                                         0.099466       0.026032

                          1       8    5fx3             10.077428      -0.467694
                                                         5.847736       0.618100
                                                         2.494033       0.066069
                                                         0.988355       0.262898
                                                         0.344978       0.004720
                                                         0.099466       0.007748
                          1       8    5fx2y            10.077428      -1.045795
                                                         5.847736       1.382114
                                                         2.494033       0.147734
                                                         0.988355       0.587859
                                                         0.344978       0.010555
                                                         0.099466       0.017325
                          1       8    5fx2z            10.077428      -1.045795
                                                         5.847736       1.382114
                                                         2.494033       0.147734
                                                         0.988355       0.587859
                                                         0.344978       0.010555
                                                         0.099466       0.017325
                          1       8    5fxy2            10.077428      -1.045795
                                                         5.847736       1.382114
                                                         2.494033       0.147734
                                                         0.988355       0.587859
                                                         0.344978       0.010555
                                                         0.099466       0.017325
                          1       8    5fxyz            10.077428      -1.811371
                                                         5.847736       2.393892
                                                         2.494033       0.255883
                                                         0.988355       1.018201
                                                         0.344978       0.018282
                                                         0.099466       0.030008
                          1       8    5fxz2            10.077428      -1.045795
                                                         5.847736       1.382114
                                                         2.494033       0.147734
                                                         0.988355       0.587859
                                                         0.344978       0.010555
                                                         0.099466       0.017325
                          1       8    5fy3             10.077428      -0.467694
                                                         5.847736       0.618100
                                                         2.494033       0.066069
                                                         0.988355       0.262898
                                                         0.344978       0.004720
                                                         0.099466       0.007748
                          1       8    5fy2z            10.077428      -1.045795
                                                         5.847736       1.382114
                                                         2.494033       0.147734
                                                         0.988355       0.587859
                                                         0.344978       0.010555
                                                         0.099466       0.017325
                          1       8    5fyz2            10.077428      -1.045795
                                                         5.847736       1.382114
                                                         2.494033       0.147734
                                                         0.988355       0.587859
                                                         0.344978       0.010555
                                                         0.099466       0.017325
                          1       8    5fz3             10.077428      -0.467694
                                                         5.847736       0.618100
                                                         2.494033       0.066069
                                                         0.988355       0.262898
                                                         0.344978       0.004720
                                                         0.099466       0.007748

     GTH Potential information for                                   GTH-PBE-q18

       Description:                       Goedecker-Teter-Hutter pseudopotential
                                           Goedecker et al., PRB 54, 1703 (1996)
                                          Hartwigsen et al., PRB 58, 3641 (1998)
                                                      Krack, TCA 114, 145 (2005)

       Gaussian exponent of the core charge distribution:               4.081633
       Electronic configuration (s p d ...):                           4   6   8

       Parameters of the local part of the GTH pseudopotential:

                          rloc        C1          C2          C3          C4
                        0.350000    2.102166    0.648484

       Parameters of the non-local part of the GTH pseudopotential:

                   l      r(l)      h(i,j,l)

                   0    0.261295    0.622658    9.970227
                                    9.970227  -12.871507
                   1    0.224253  -11.142708   12.429566
                                   12.429566  -14.706861
                   2    0.215348  -12.628146


 MOLECULE KIND INFORMATION


 All atoms are their own molecule, skipping detailed information


 TOTAL NUMBERS AND MAXIMUM NUMBERS

  Total number of            - Atomic kinds:                                   5
                             - Atoms:                                        569
                             - Shell sets:                                   569
                             - Shells:                                      2547
                             - Primitive Cartesian functions:               2885
                             - Cartesian basis functions:                   6702
                             - Spherical basis functions:                   6227

  Maximum angular momentum of- Orbital basis functions:                        3
                             - Local part of the GTH pseudopotential:          2
                             - Non-local part of the GTH pseudopotential:      4


 MODULE QUICKSTEP:  ATOMIC COORDINATES IN angstrom

  Atom  Kind  Element       X           Y           Z          Z(eff)       Mass

       1     1 C    6   11.858699   14.053499   21.731311      4.00      12.0107
       2     1 C    6   12.456219   12.890539   21.013032      4.00      12.0107
       3     1 C    6   11.704479   12.171500   20.071497      4.00      12.0107
       4     1 C    6   12.280898   11.109314   19.379146      4.00      12.0107
       5     1 C    6   13.621523   10.739649   19.606796      4.00      12.0107
       6     1 C    6   14.354735   11.443343   20.580138      4.00      12.0107
       7     1 C    6   13.781814   12.508305   21.271645      4.00      12.0107
       8     1 C    6   14.261100    9.649002   18.833407      4.00      12.0107
       9     1 C    6   14.256413    9.656915   17.411709      4.00      12.0107
      10     1 C    6   13.743188   10.759013   16.657803      4.00      12.0107
      11     1 C    6   49.126890   21.233238   21.869465      4.00      12.0107
      12     1 C    6   48.550134   22.401166   21.142315      4.00      12.0107
      13     1 C    6   49.300199   23.068615   20.161445      4.00      12.0107
      14     1 C    6   48.733248   24.107757   19.428255      4.00      12.0107
      15     1 C    6   47.402682   24.509309   19.656850      4.00      12.0107
      16     1 C    6   46.671676   23.860292   20.670220      4.00      12.0107
      17     1 C    6   47.234150   22.815383   21.399546      4.00      12.0107
      18     1 C    6   46.772415   25.587008   18.859595      4.00      12.0107
      19     1 C    6   46.761307   25.557375   17.437838      4.00      12.0107
      20     1 C    6   47.261192   24.442254   16.694356      4.00      12.0107
      21     1 C    6   14.860406    8.570609   16.698445      4.00      12.0107
      22     1 C    6   14.891903    8.597071   19.510060      4.00      12.0107
      23     1 C    6   49.113159   21.203455   10.145380      4.00      12.0107
      24     1 C    6   48.527740   22.364765   10.872653      4.00      12.0107
      25     1 C    6   49.266991   23.025619   11.865446      4.00      12.0107
      26     1 C    6   48.690614   24.060175   12.596879      4.00      12.0107
      27     1 C    6   47.360138   24.456778   12.358735      4.00      12.0107
      28     1 C    6   46.639676   23.811682   11.335375      4.00      12.0107
      29     1 C    6   47.213269   22.775768   10.603630      4.00      12.0107
      30     1 C    6   46.721681   25.531769   13.149737      4.00      12.0107
      31     1 C    6   46.733411   25.528147   14.571436      4.00      12.0107
      32     1 C    6   47.248855   24.428929   15.327806      4.00      12.0107
      33     1 C    6   40.634879   17.167077   15.320203      4.00      12.0107
      34     1 C    6   40.656216   17.182223   12.511423      4.00      12.0107
      35     1 C    6   11.882957   14.086515   10.285463      4.00      12.0107
      36     1 C    6   12.472336   12.910732   10.989729      4.00      12.0107
      37     1 C    6   11.714858   12.177562   11.915888      4.00      12.0107
      38     1 C    6   12.281463   11.095114   12.584309      4.00      12.0107
      39     1 C    6   13.620267   10.721362   12.352434      4.00      12.0107
      40     1 C    6   14.358188   11.436858   11.391538      4.00      12.0107
      41     1 C    6   13.792730   12.518006   10.718837      4.00      12.0107
      42     1 C    6   14.253916    9.624630   13.122836      4.00      12.0107
      43     1 C    6   14.252622    9.644586   14.544679      4.00      12.0107
      44     1 C    6   13.742682   10.753502   15.291758      4.00      12.0107
      45     1 C    6   22.512236    3.244274   21.743055      4.00      12.0107
      46     1 C    6   23.227779    4.348876   21.043913      4.00      12.0107
      47     1 C    6   24.224258    4.067602   20.097532      4.00      12.0107
      48     1 C    6   24.852427    5.106339   19.415452      4.00      12.0107
      49     1 C    6   24.499848    6.448505   19.659626      4.00      12.0107
      50     1 C    6   23.531718    6.721303   20.643214      4.00      12.0107
      51     1 C    6   22.898855    5.684383   21.323715      4.00      12.0107
      52     1 C    6   25.106416    7.554338   18.883849      4.00      12.0107
      53     1 C    6   25.077695    7.547589   17.462373      4.00      12.0107
      54     1 C    6   24.374593    6.548925   16.716308      4.00      12.0107
      55     1 C    6   38.299134   31.927977   21.840962      4.00      12.0107
      56     1 C    6   37.559838   30.839075   21.137494      4.00      12.0107
      57     1 C    6   36.594256   31.145987   20.166294      4.00      12.0107
      58     1 C    6   35.965794   30.128216   19.453816      4.00      12.0107
      59     1 C    6   36.287765   28.777087   19.689129      4.00      12.0107
      60     1 C    6   37.223204   28.477485   20.697582      4.00      12.0107
      61     1 C    6   37.855449   29.494292   21.409598      4.00      12.0107
      62     1 C    6   35.678124   27.689046   18.889768      4.00      12.0107
      63     1 C    6   35.714129   27.706075   17.467923      4.00      12.0107
      64     1 C    6   36.425083   28.707751   16.734338      4.00      12.0107
      65     1 C    6   25.700291    8.617723   16.742504      4.00      12.0107
      66     1 C    6   25.705223    8.628243   19.554654      4.00      12.0107
      67     1 C    6   38.329908   31.961720   10.159071      4.00      12.0107
      68     1 C    6   37.610348   30.890004   10.906987      4.00      12.0107
      69     1 C    6   36.678231   31.202354   11.908602      4.00      12.0107
      70     1 C    6   36.065261   30.187090   12.640709      4.00      12.0107
      71     1 C    6   36.369469   28.833093   12.395045      4.00      12.0107
      72     1 C    6   37.282147   28.530597   11.365781      4.00      12.0107
      73     1 C    6   37.897111   29.542492   10.634896      4.00      12.0107
      74     1 C    6   35.752654   27.736317   13.177083      4.00      12.0107
      75     1 C    6   35.751850   27.730568   14.599562      4.00      12.0107
      76     1 C    6   36.442109   28.720093   15.367825      4.00      12.0107
      77     1 C    6   46.135442   26.620807   15.281566      4.00      12.0107
      78     1 C    6   46.087739   26.580122   12.473667      4.00      12.0107
      79     1 C    6   22.461123    3.256070   10.257877      4.00      12.0107
      80     1 C    6   23.155478    4.364635   10.980689      4.00      12.0107
      81     1 C    6   24.157491    4.078423   11.921629      4.00      12.0107
      82     1 C    6   24.785696    5.108372   12.617703      4.00      12.0107
      83     1 C    6   24.432212    6.454482   12.395704      4.00      12.0107
      84     1 C    6   23.453392    6.733919   11.423157      4.00      12.0107
      85     1 C    6   22.820512    5.704233   10.727533      4.00      12.0107
      86     1 C    6   25.063120    7.552479   13.170276      4.00      12.0107
      87     1 C    6   25.055853    7.546221   14.593201      4.00      12.0107
      88     1 C    6   24.362347    6.549298   15.349634      4.00      12.0107
      89     1 C    6   26.621556   17.860801   21.777754      4.00      12.0107
      90     1 C    6   25.313579   17.903046   21.052252      4.00      12.0107
      91     1 C    6   25.058404   18.897385   20.094757      4.00      12.0107
      92     1 C    6   23.846312   18.919252   19.407093      4.00      12.0107
      93     1 C    6   22.853316   17.949085   19.653474      4.00      12.0107
      94     1 C    6   23.106005   16.976185   20.639088      4.00      12.0107
      95     1 C    6   24.319767   16.949664   21.325283      4.00      12.0107
      96     1 C    6   21.580212   17.936196   18.888345      4.00      12.0107
      97     1 C    6   21.578813   17.917393   17.465459      4.00      12.0107
      98     1 C    6   22.784085   17.803111   16.702605      4.00      12.0107
      99     1 C    6   34.440770   17.195356   21.911334      4.00      12.0107
     100     1 C    6   35.731723   17.154387   21.163191      4.00      12.0107
     101     1 C    6   35.934714   16.200064   20.154227      4.00      12.0107
     102     1 C    6   37.113721   16.198463   19.414225      4.00      12.0107
     103     1 C    6   38.123053   17.147917   19.666420      4.00      12.0107
     104     1 C    6   37.923026   18.081908   20.700569      4.00      12.0107
     105     1 C    6   36.740043   18.090881   21.435604      4.00      12.0107
     106     1 C    6   39.377959   17.163004   18.882095      4.00      12.0107
     107     1 C    6   39.375271   17.187547   17.460760      4.00      12.0107
     108     1 C    6   38.170160   17.321305   16.701640      4.00      12.0107
     109     1 C    6   20.331221   17.931489   16.758332      4.00      12.0107
     110     1 C    6   20.355470   17.936985   19.571235      4.00      12.0107
     111     1 C    6   34.477354   17.246273   10.179896      4.00      12.0107
     112     1 C    6   35.781528   17.173229   10.899417      4.00      12.0107
     113     1 C    6   35.990197   16.204822   11.892403      4.00      12.0107
     114     1 C    6   37.175355   16.194060   12.622078      4.00      12.0107
     115     1 C    6   38.179414   17.150638   12.377040      4.00      12.0107
     116     1 C    6   37.977714   18.092251   11.350795      4.00      12.0107
     117     1 C    6   36.790074   18.108923   10.624860      4.00      12.0107
     118     1 C    6   39.424474   17.176480   13.174355      4.00      12.0107
[...]
 flops   270 x   256 x   288         355690414080       0.0%    100.0%      0.0%
 flops   270 x   288 x   256         355690414080       0.0%    100.0%      0.0%
 flops   288 x   256 x   270         355690414080       0.0%    100.0%      0.0%
 flops   288 x   270 x   256         355690414080       0.0%    100.0%      0.0%
 flops   256 x   262 x   262         365374988288       0.0%    100.0%      0.0%
 flops   262 x   256 x   262         365374988288       0.0%    100.0%      0.0%
 flops   262 x   262 x   256         365374988288       0.0%    100.0%      0.0%
 flops   256 x   262 x   288         401633574912       0.0%    100.0%      0.0%
 flops   256 x   288 x   262         401633574912       0.0%    100.0%      0.0%
 flops   262 x   256 x   288         401633574912       0.0%    100.0%      0.0%
 flops   262 x   288 x   256         401633574912       0.0%    100.0%      0.0%
 flops   288 x   256 x   262         401633574912       0.0%    100.0%      0.0%
 flops   288 x   262 x   256         401633574912       0.0%    100.0%      0.0%
 flops    26 x     5 x   256         437023641600       0.0%    100.0%      0.0%
 flops     5 x    26 x   256         441185771520       0.0%    100.0%      0.0%
 flops   288 x   288 x   288         461752565760       0.0%    100.0%      0.0%
 flops     5 x     5 x   256         542855014400       0.0%    100.0%      0.0%
 flops    26 x    13 x   262         550066656672       0.0%    100.0%      0.0%
 flops    13 x    26 x   262         552527805024       0.0%    100.0%      0.0%
 flops    26 x    13 x   270         566862585120       0.0%    100.0%      0.0%
 flops    13 x    26 x   270         569398883040       0.0%    100.0%      0.0%
 flops    13 x    14 x    13         589985159036       0.0%    100.0%      0.0%
 flops     5 x    13 x   262         609724647220       0.0%    100.0%      0.0%
 flops    13 x     5 x   262         614517979140       0.0%    100.0%      0.0%
 flops     5 x    13 x   270         628342193700       0.0%    100.0%      0.0%
 flops   256 x   256 x   270         632338513920       0.0%    100.0%      0.0%
 flops   256 x   270 x   256         632338513920       0.0%    100.0%      0.0%
 flops   270 x   256 x   256         632338513920       0.0%    100.0%      0.0%
 flops    13 x     5 x   270         633281886900       0.0%    100.0%      0.0%
 flops   256 x   256 x   262         714015244288       0.0%    100.0%      0.0%
 flops   256 x   262 x   256         714015244288       0.0%    100.0%      0.0%
 flops   262 x   256 x   256         714015244288       0.0%    100.0%      0.0%
 flops   288 x   288 x   256         820893450240       0.0%    100.0%      0.0%
 flops   256 x   288 x   288         820893450240       0.0%    100.0%      0.0%
 flops   288 x   256 x   288         820893450240       0.0%    100.0%      0.0%
 flops   262 x   262 x  1559         861478767800       0.0%    100.0%      0.0%
 flops   270 x   270 x  1559         914891355000       0.0%    100.0%      0.0%
 flops   262 x   288 x  1559         946969027200       0.0%    100.0%      0.0%
 flops   288 x   262 x  1559         946969027200       0.0%    100.0%      0.0%
 flops   270 x   288 x  1559         975884112000       0.0%    100.0%      0.0%
 flops   288 x   270 x  1559         975884112000       0.0%    100.0%      0.0%
 flops  1559 x   262 x   262        1151706148952       0.0%    100.0%      0.0%
 flops    26 x    13 x   288        1209306848256       0.0%    100.0%      0.0%
 flops    13 x    26 x   288        1214717617152       0.0%    100.0%      0.0%
 flops  1559 x   270 x   270        1223113138200       0.0%    100.0%      0.0%
 flops  1559 x   262 x   288        1265997598848       0.0%    100.0%      0.0%
 flops  1559 x   288 x   262        1265997598848       0.0%    100.0%      0.0%
 flops  1559 x   270 x   288        1304654014080       0.0%    100.0%      0.0%
 flops  1559 x   288 x   270        1304654014080       0.0%    100.0%      0.0%
 flops     5 x    13 x   288        1340463346560       0.0%    100.0%      0.0%
 flops    13 x     5 x   288        1351001358720       0.0%    100.0%      0.0%
 flops   256 x   256 x   288        1459366133760       0.0%    100.0%      0.0%
 flops   256 x   288 x   256        1459366133760       0.0%    100.0%      0.0%
 flops   288 x   256 x   256        1459366133760       0.0%    100.0%      0.0%
 flops   256 x   262 x  1559        1683500492800       0.0%    100.0%      0.0%
 flops   262 x   256 x  1559        1683500492800       0.0%    100.0%      0.0%
 flops   256 x   270 x  1559        1734905088000       0.0%    100.0%      0.0%
 flops   270 x   256 x  1559        1734905088000       0.0%    100.0%      0.0%
 flops   288 x   288 x  1559        2081886105600       0.0%    100.0%      0.0%
 flops    26 x    13 x   256        2149878841344       0.0%    100.0%      0.0%
 flops    13 x    26 x   256        2159497986048       0.0%    100.0%      0.0%
 flops  1559 x   256 x   262        2250662397952       0.0%    100.0%      0.0%
 flops  1559 x   262 x   256        2250662397952       0.0%    100.0%      0.0%
 flops  1559 x   256 x   270        2319384913920       0.0%    100.0%      0.0%
 flops  1559 x   270 x   256        2319384913920       0.0%    100.0%      0.0%
 flops  1559 x   262 x  1559        2373938290016       0.0%    100.0%      0.0%
 flops     5 x    13 x   256        2383045949440       0.0%    100.0%      0.0%
 flops    13 x     5 x   256        2401780193280       0.0%    100.0%      0.0%
 flops  1559 x   270 x  1559        2446424955360       0.0%    100.0%      0.0%
 flops    26 x    32 x    26        2453937108480       0.0%    100.0%      0.0%
 flops   262 x   262 x  1556        2579463045600       0.0%    100.0%      0.0%
 flops   256 x   256 x   256        2594428682240       0.0%    100.0%      0.0%
 flops    13 x    13 x   262        2638810196204       0.0%    100.0%      0.0%
 flops    13 x    13 x   270        2719384553340       0.0%    100.0%      0.0%
 flops   270 x   270 x  1556        2739392460000       0.0%    100.0%      0.0%
 flops  1559 x   288 x   288        2783261896704       0.0%    100.0%      0.0%
 flops   262 x   288 x  1556        2835440294400       0.0%    100.0%      0.0%
 flops   288 x   262 x  1556        2835440294400       0.0%    100.0%      0.0%
 flops   270 x   288 x  1556        2922018624000       0.0%    100.0%      0.0%
 flops   288 x   270 x  1556        2922018624000       0.0%    100.0%      0.0%
 flops  1556 x   262 x   262        3448469726304       0.0%    100.0%      0.0%
 flops  1556 x   270 x   270        3662278466400       0.0%    100.0%      0.0%
 flops   256 x   288 x  1559        3701130854400       0.0%    100.0%      0.0%
 flops   288 x   256 x  1559        3701130854400       0.0%    100.0%      0.0%
 flops  1556 x   288 x   262        3790684279296       0.0%    100.0%      0.0%
 flops  1556 x   262 x   288        3790684279296       0.0%    100.0%      0.0%
 flops     5 x    32 x    26        3896343285120       0.0%    100.0%      0.0%
 flops    26 x    32 x     5        3896343285120       0.0%    100.0%      0.0%
 flops  1556 x   288 x   270        3906430364160       0.0%    100.0%      0.0%
 flops  1556 x   270 x   288        3906430364160       0.0%    100.0%      0.0%
 flops     5 x    32 x     5        4745146348800       0.0%    100.0%      0.0%
 flops  1559 x   256 x   288        4948021149696       0.0%    100.0%      0.0%
 flops  1559 x   288 x   256        4948021149696       0.0%    100.0%      0.0%
 flops   256 x   262 x  1556        5040782745600       0.0%    100.0%      0.0%
 flops   262 x   256 x  1556        5040782745600       0.0%    100.0%      0.0%
 flops   256 x   270 x  1556        5194699776000       0.0%    100.0%      0.0%
 flops   270 x   256 x  1556        5194699776000       0.0%    100.0%      0.0%
 flops  1559 x   288 x  1559        5219039904768       0.0%    100.0%      0.0%
 flops    13 x    13 x   288        5801353713792       0.0%    100.0%      0.0%
 flops   288 x   288 x  1556        6233639731200       0.0%    100.0%      0.0%
 flops   256 x   256 x  1559        6579788185600       0.0%    100.0%      0.0%
 flops  1556 x   256 x   262        6738994274304       0.0%    100.0%      0.0%
 flops  1556 x   262 x   256        6738994274304       0.0%    100.0%      0.0%
 flops  1556 x   256 x   270        6944765091840       0.0%    100.0%      0.0%
 flops  1556 x   270 x   256        6944765091840       0.0%    100.0%      0.0%
 flops  1556 x   262 x  1559        7108110287232       0.0%    100.0%      0.0%
 flops  1559 x   262 x  1556        7108110287232       0.0%    100.0%      0.0%
 flops  1556 x   270 x  1559        7325151822720       0.0%    100.0%      0.0%
 flops  1559 x   270 x  1556        7325151822720       0.0%    100.0%      0.0%
 flops  1556 x   288 x   288        8333718110208       0.0%    100.0%      0.0%
 flops  1559 x   256 x   256        8796482043904       0.0%    100.0%      0.0%
 flops  1559 x   256 x  1559        9278293164032       0.0%    100.0%      0.0%
 flops    13 x    13 x   256       10313517713408       0.0%    100.0%      0.0%
 flops   256 x   288 x  1556       11082026188800       0.0%    100.0%      0.0%
 flops   288 x   256 x  1556       11082026188800       0.0%    100.0%      0.0%
 flops  1556 x   288 x   256       14815498862592       0.0%    100.0%      0.0%
 flops  1556 x   256 x   288       14815498862592       0.0%    100.0%      0.0%
 flops  1556 x   288 x  1559       15626990555136       0.0%    100.0%      0.0%
 flops  1559 x   288 x  1556       15626990555136       0.0%    100.0%      0.0%
 flops    13 x    32 x    26       19119370862592       0.0%    100.0%      0.0%
 flops    26 x    32 x    13       19119370862592       0.0%    100.0%      0.0%
 flops   256 x   256 x  1556       19701379891200       0.0%    100.0%      0.0%
 flops     5 x    32 x    13       21228791126400       0.0%    100.0%      0.0%
 flops    13 x    32 x     5       21228791126400       0.0%    100.0%      0.0%
 flops  1556 x   262 x  1556       21283296228864       0.0%    100.0%      0.0%
 flops  1556 x   270 x  1556       21933167869440       0.0%    100.0%      0.0%
 flops  1556 x   256 x   256       26338664644608       0.0%    100.0%      0.0%
 flops  1556 x   256 x  1559       27781316542464       0.0%    100.0%      0.0%
 flops  1559 x   256 x  1556       27781316542464       0.0%    100.0%      0.0%
 flops  1556 x   288 x  1556       46790758121472       0.0%    100.0%      0.0%
 flops  1556 x   256 x  1556       83183569993728       0.0%    100.0%      0.0%
 flops    13 x    32 x    13       90542195954496       0.0%    100.0%      0.0%
 flops inhomo. stacks                           0       0.0%      0.0%      0.0%
 flops total                       829.908847E+12       0.0%    100.0%      0.0%
 flops max/rank                     56.643919E+12       0.0%    100.0%      0.0%
 matmuls inhomo. stacks                         0       0.0%      0.0%      0.0%
 matmuls total                        25736195398       0.0%    100.0%      0.0%
 number of processed stacks              33837339       0.0%    100.0%      0.0%
 average stack size                                     0.0     760.6       0.0
 marketing flops                     1.509762E+15
 -------------------------------------------------------------------------------
 # multiplications                          43660
 max memory usage/rank               2.190049E+09
 # max total images/rank                        1
 # max 3D layers                                1
 # MPI messages exchanged                 4191360
 MPI messages size (bytes):
  total size                        13.616531E+12
  min size                           0.000000E+00
  max size                          19.443848E+06
  average size                       3.248714E+06
 MPI breakdown and total messages size (bytes):
             size <=      128               33528                        0
       128 < size <=     8192                   0                        0
      8192 < size <=    32768                   0                        0
     32768 < size <=   131072                3048                206703168
    131072 < size <=  4194304             3617136            8031559924848
   4194304 < size <= 16777216              358704            2116253295000
  16777216 < size                          178944            3469324130688
 -------------------------------------------------------------------------------
 -                                                                             -
 -                      DBCSR MESSAGE PASSING PERFORMANCE                      -
 -                                                                             -
 -------------------------------------------------------------------------------
 ROUTINE             CALLS      AVE VOLUME [Bytes]
 MP_Group             5404
 MP_Bcast              191                     12.
 MP_Allreduce       217071                     35.
 MP_Alltoall        204537                 748090.
 MP_Wait           2095680
 MP_ISend           697544                1276077.
 MP_IRecv           697544                1259960.
 MP_Memory         1689608
 -------------------------------------------------------------------------------

 MEMORY| Estimated peak process memory [MiB]                                2089

 -------------------------------------------------------------------------------
 ----                             MULTIGRID INFO                            ----
 -------------------------------------------------------------------------------
 count for grid        1:        1657680          cutoff [a.u.]          180.00
 count for grid        2:         393520          cutoff [a.u.]           60.00
 count for grid        3:         224320          cutoff [a.u.]           20.00
 count for grid        4:          22240          cutoff [a.u.]            6.67
 count for grid        5:            640          cutoff [a.u.]            2.22
 total gridlevel count  :        2298400

 -------------------------------------------------------------------------------
 -                                                                             -
 -                         MESSAGE PASSING PERFORMANCE                         -
 -                                                                             -
 -------------------------------------------------------------------------------

 ROUTINE             CALLS      AVE VOLUME [Bytes]
 MP_Group                6
 MP_Bcast             1235                6812802.
 MP_Allreduce           91                  18149.
 MP_Sync                 5
 -------------------------------------------------------------------------------


 -------------------------------------------------------------------------------
 -                                                                             -
 -                           R E F E R E N C E S                               -
 -                                                                             -
 -------------------------------------------------------------------------------
 
 CP2K version 7.1, the CP2K developers group (2019).
 CP2K is freely available from https://www.cp2k.org/ .

 Schuett, Ole; Messmer, Peter; Hutter, Juerg; VandeVondele, Joost. 
 Electronic Structure Calculations on Graphics Processing Units, John
 Wiley & Sons, Ltd, 173-190 (2016). 
 GPU-Accelerated Sparse Matrix-Matrix Multiplication for
 Linear Scaling Density Functional Theory.
 https://dx.doi.org/10.1002/9781118670712.ch8

 Borstnik, U; VandeVondele, J; Weber, V; Hutter, J. 
 PARALLEL COMPUTING, 40 (5-6), 47-58 (2014). 
 Sparse matrix multiplication: The distributed block-compressed sparse
 row library.
 https://dx.doi.org/10.1016/j.parco.2014.03.012

 Hutter, J; Iannuzzi, M; Schiffmann, F; VandeVondele, J. 
 WIREs Comput Mol Sci., 4 (1), 15-25 (2014). 
 CP2K: atomistic simulations of condensed matter systems.
 https://dx.doi.org/10.1002/wcms.1159

 Grimme, S; Ehrlich, S; Goerigk, L. 
 JOURNAL OF COMPUTATIONAL CHEMISTRY, 32, 1456 (2011). 
 Effect of the damping function in dispersion corrected density functional theory.
 https://dx.doi.org/10.1002/jcc.21759

 Grimme, S; Antony, J; Ehrlich, S; Krieg, H. 
 JOURNAL OF CHEMICAL PHYSICS, 132 (15), 154104 (2010). 
 A consistent and accurate ab initio parametrization of density
 functional dispersion correction (DFT-D) for the 94 elements H-Pu.
 https://dx.doi.org/10.1063/1.3382344

 VandeVondele, J; Hutter, J. 
 JOURNAL OF CHEMICAL PHYSICS, 127 (11), 114105 (2007). 
 Gaussian basis sets for accurate calculations on molecular systems in
 gas and condensed phases.
 https://dx.doi.org/10.1063/1.2770708

 Krack, M. 
 THEORETICAL CHEMISTRY ACCOUNTS, 114 (1-3), 145-152 (2005). 
 Pseudopotentials for H to Kr optimized for gradient-corrected
 exchange-correlation functionals.
 https://dx.doi.org/10.1007/s00214-005-0655-y

 VandeVondele, J; Krack, M; Mohamed, F; Parrinello, M; Chassaing, T;
 Hutter, J. COMPUTER PHYSICS COMMUNICATIONS, 167 (2), 103-128 (2005). 
 QUICKSTEP: Fast and accurate density functional calculations using a
 mixed Gaussian and plane waves approach.
 https://dx.doi.org/10.1016/j.cpc.2004.12.014

 Frigo, M; Johnson, SG. 
 PROCEEDINGS OF THE IEEE, 93 (2), 216-231 (2005). 
 The design and implementation of FFTW3.
 https://dx.doi.org/10.1109/JPROC.2004.840301

 Kolafa, J. 
 JOURNAL OF COMPUTATIONAL CHEMISTRY, 25 (3), 335-342 (2004). 
 Time-reversible always stable predictor-corrector method for molecular dynamics of polarizable molecules.
 https://dx.doi.org/10.1002/jcc.10385

 VandeVondele, J; Hutter, J. 
 JOURNAL OF CHEMICAL PHYSICS, 118 (10), 4365-4369 (2003). 
 An efficient orbital transformation method for electronic structure
 calculations.
 https://dx.doi.org/10.1063/1.1543154

 Hartwigsen, C; Goedecker, S; Hutter, J. 
 PHYSICAL REVIEW B, 58 (7), 3641-3662 (1998). 
 Relativistic separable dual-space Gaussian pseudopotentials from H to Rn.
 https://dx.doi.org/10.1103/PhysRevB.58.3641

 Lippert, G; Hutter, J; Parrinello, M. 
 MOLECULAR PHYSICS, 92 (3), 477-487 (1997). 
 A hybrid Gaussian and plane wave density functional scheme.
 https://dx.doi.org/10.1080/002689797170220

 Perdew, JP; Burke, K; Ernzerhof, M. 
 PHYSICAL REVIEW LETTERS, 77 (18), 3865-3868 (1996). 
 Generalized gradient approximation made simple.
 https://dx.doi.org/10.1103/PhysRevLett.77.3865

 Goedecker, S; Teter, M; Hutter, J. 
 PHYSICAL REVIEW B, 54 (3), 1703-1710 (1996). 
 Separable dual-space Gaussian pseudopotentials.
 https://dx.doi.org/10.1103/PhysRevB.54.1703


 -------------------------------------------------------------------------------
 -                                                                             -
 -                                T I M I N G                                  -
 -                                                                             -
 -------------------------------------------------------------------------------
 SUBROUTINE                       CALLS  ASD         SELF TIME        TOTAL TIME
                                MAXIMUM       AVERAGE  MAXIMUM  AVERAGE  MAXIMUM
 CP2K                                 1  1.0     0.01     0.01 58337.77 58337.93
 vb_anal                              1  2.0 58333.39 58333.54 58335.60 58335.76
 -------------------------------------------------------------------------------

 The number of warnings for this run is : 0
 
 -------------------------------------------------------------------------------
  **** **** ******  **  PROGRAM ENDED AT                 2021-11-22 09:28:05.091
 ***** ** ***  *** **   PROGRAM RAN ON             node1196.palmetto.clemson.edu
 **    ****   ******    PROGRAM RAN BY                                   svicchi
 ***** **    ** ** **   PROGRAM PROCESS ID                                230327
  **** **  *******  **  PROGRAM STOPPED IN  /scratch2/svicchi/CP2K-4052816.pbs02
