 DBCSR| CPU Multiplication driver                                           XSMM
 DBCSR| Multrec recursion limit                                              512
 DBCSR| Multiplication stack size                                           1000
 DBCSR| Maximum elements for images                                    UNLIMITED
 DBCSR| Multiplicative factor virtual images                                   1
 DBCSR| Use multiplication densification                                       T
 DBCSR| Multiplication size stacks                                             3
 DBCSR| Number of 3D layers                                               SINGLE
 DBCSR| Use MPI memory allocation                                              T
 DBCSR| Use RMA algorithm                                                      F
 DBCSR| Use Communication thread                                               T
 DBCSR| Communication thread load                                             87


  **** **** ******  **  PROGRAM STARTED AT               2021-11-19 14:40:28.427
 ***** ** ***  *** **   PROGRAM STARTED ON         node1909.palmetto.clemson.edu
 **    ****   ******    PROGRAM STARTED BY                               svicchi
 ***** **    ** ** **   PROGRAM PROCESS ID                               4102247
  **** **  *******  **  PROGRAM STARTED IN  /scratch2/svicchi/CP2K-4048759.pbs02

 CP2K| version string:                                          CP2K version 7.1
 CP2K| source code revision number:                                  git:e635599
 CP2K| cp2kflags: libint fftw3 libxc parallel mpi3 scalapack xsmm               
 CP2K| is freely available from                            https://www.cp2k.org/
 CP2K| Program compiled at                          Wed Aug 12 10:01:37 EDT 2020
 CP2K| Program compiled on                           util02.palmetto.clemson.edu
 CP2K| Program compiled for                          linux-centos8-ivybridge-gcc
 CP2K| Data directory path    /software/spackages/linux-centos8-ivybridge/gcc-8.
 CP2K| Input file name                044_Zr18_C264_Ni4_O103_H186_UKS-multi9.inp

 GLOBAL| Force Environment number                                              1
 GLOBAL| Basis set file name                                          BASIS_file
 GLOBAL| Potential file name                                     POTENTIALS_file
 GLOBAL| MM Potential file name                                     MM_POTENTIAL
 GLOBAL| Coordinate file name           044_Zr18_C264_Ni4_O103_H186_UKS-multi9.x
 GLOBAL| Method name                                                        CP2K
 GLOBAL| Project name                   info-205-044_Zr18_C264_Ni4_O103_H186_UKS
 GLOBAL| Preferred FFT library                                             FFTW3
 GLOBAL| Preferred diagonalization lib.                                       SL
 GLOBAL| Run type                                           VIBRATIONAL_ANALYSIS
 GLOBAL| All-to-all communication in single precision                          F
 GLOBAL| FFTs using library dependent lengths                                  F
 GLOBAL| Global print level                                               MEDIUM
 GLOBAL| MPI I/O enabled                                                       T
 GLOBAL| Total number of message passing processes                            16
 GLOBAL| Number of threads for this process                                    1
 GLOBAL| This output is from process                                           0
 GLOBAL| CPU model name                 Intel(R) Xeon(R) CPU E5-2665 0 @ 2.40GHz
 GLOBAL| CPUID                                                              1001

 MEMORY| system memory details [Kb]
 MEMORY|                        rank 0           min           max       average
 MEMORY| MemTotal            131713748     131713748     131713748     131713748
 MEMORY| MemFree             125065600     125065600     125065600     125065600
 MEMORY| Buffers                  6408          6408          6408          6408
 MEMORY| Cached                2908372       2908372       2908372       2908372
 MEMORY| Slab                   773408        773408        773408        773408
 MEMORY| SReclaimable           367116        367116        367116        367116
 MEMORY| MemLikelyFree       128347496     128347496     128347496     128347496


 *** Fundamental physical constants (SI units) ***

 *** Literature: B. J. Mohr and B. N. Taylor,
 ***             CODATA recommended values of the fundamental physical
 ***             constants: 2006, Web Version 5.1
 ***             http://physics.nist.gov/constants

 Speed of light in vacuum [m/s]                             2.99792458000000E+08
 Magnetic constant or permeability of vacuum [N/A**2]       1.25663706143592E-06
 Electric constant or permittivity of vacuum [F/m]          8.85418781762039E-12
 Planck constant (h) [J*s]                                  6.62606896000000E-34
 Planck constant (h-bar) [J*s]                              1.05457162825177E-34
 Elementary charge [C]                                      1.60217648700000E-19
 Electron mass [kg]                                         9.10938215000000E-31
 Electron g factor [ ]                                     -2.00231930436220E+00
 Proton mass [kg]                                           1.67262163700000E-27
 Fine-structure constant                                    7.29735253760000E-03
 Rydberg constant [1/m]                                     1.09737315685270E+07
 Avogadro constant [1/mol]                                  6.02214179000000E+23
 Boltzmann constant [J/K]                                   1.38065040000000E-23
 Atomic mass unit [kg]                                      1.66053878200000E-27
 Bohr radius [m]                                            5.29177208590000E-11

 *** Conversion factors ***

 [u] -> [a.u.]                                              1.82288848426455E+03
 [Angstrom] -> [Bohr] = [a.u.]                              1.88972613288564E+00
 [a.u.] = [Bohr] -> [Angstrom]                              5.29177208590000E-01
 [a.u.] -> [s]                                              2.41888432650478E-17
 [a.u.] -> [fs]                                             2.41888432650478E-02
 [a.u.] -> [J]                                              4.35974393937059E-18
 [a.u.] -> [N]                                              8.23872205491840E-08
 [a.u.] -> [K]                                              3.15774647902944E+05
 [a.u.] -> [kJ/mol]                                         2.62549961709828E+03
 [a.u.] -> [kcal/mol]                                       6.27509468713739E+02
 [a.u.] -> [Pa]                                             2.94210107994716E+13
 [a.u.] -> [bar]                                            2.94210107994716E+08
 [a.u.] -> [atm]                                            2.90362800883016E+08
 [a.u.] -> [eV]                                             2.72113838565563E+01
 [a.u.] -> [Hz]                                             6.57968392072181E+15
 [a.u.] -> [1/cm] (wave numbers)                            2.19474631370540E+05
 [a.u./Bohr**2] -> [1/cm]                                   5.14048714338585E+03
 

 CELL_TOP| Volume [angstrom^3]:                                        22838.217
 CELL_TOP| Vector a [angstrom    40.611     0.000     0.000    |a| =      40.611
 CELL_TOP| Vector b [angstrom    20.305    35.170     0.000    |b| =      40.611
 CELL_TOP| Vector c [angstrom     0.000     0.000    15.990    |c| =      15.990
 CELL_TOP| Angle (b,c), alpha [degree]:                                   90.000
 CELL_TOP| Angle (a,c), beta  [degree]:                                   90.000
 CELL_TOP| Angle (a,b), gamma [degree]:                                   60.000
 CELL_TOP| Requested initial symmetry:                       MONOCLINIC_GAMMA_AB
 CELL_TOP| Numerically orthorhombic:                                          NO

 CELL| Volume [angstrom^3]:                                            22838.217
 CELL| Vector a [angstrom]:      40.611     0.000     0.000    |a| =      40.611
 CELL| Vector b [angstrom]:      20.305    35.170     0.000    |b| =      40.611
 CELL| Vector c [angstrom]:       0.000     0.000    15.990    |c| =      15.990
 CELL| Angle (b,c), alpha [degree]:                                       90.000
 CELL| Angle (a,c), beta  [degree]:                                       90.000
 CELL| Angle (a,b), gamma [degree]:                                       60.000
 CELL| Requested initial symmetry:                           MONOCLINIC_GAMMA_AB
 CELL| Numerically orthorhombic:                                              NO

 CELL_REF| Volume [angstrom^3]:                                        22838.217
 CELL_REF| Vector a [angstrom    40.611     0.000     0.000    |a| =      40.611
 CELL_REF| Vector b [angstrom    20.305    35.170     0.000    |b| =      40.611
 CELL_REF| Vector c [angstrom     0.000     0.000    15.990    |c| =      15.990
 CELL_REF| Angle (b,c), alpha [degree]:                                   90.000
 CELL_REF| Angle (a,c), beta  [degree]:                                   90.000
 CELL_REF| Angle (a,b), gamma [degree]:                                   60.000
 CELL_REF| Requested initial symmetry:                       MONOCLINIC_GAMMA_AB
 CELL_REF| Numerically orthorhombic:                                          NO

 *******************************************************************************
 *******************************************************************************
 **                                                                           **
 **     #####                         ##              ##                      **
 **    ##   ##            ##          ##              ##                      **
 **   ##     ##                       ##            ######                    **
 **   ##     ##  ##   ##  ##   #####  ##  ##   ####   ##    #####    #####    **
 **   ##     ##  ##   ##  ##  ##      ## ##   ##      ##   ##   ##  ##   ##   **
 **   ##  ## ##  ##   ##  ##  ##      ####     ###    ##   ######   ######    **
 **    ##  ###   ##   ##  ##  ##      ## ##      ##   ##   ##       ##        **
 **     #######   #####   ##   #####  ##  ##  ####    ##    #####   ##        **
 **           ##                                                    ##        **
 **                                                                           **
 **                                                ... make the atoms dance   **
 **                                                                           **
 **            Copyright (C) by CP2K developers group (2000 - 2019)           **
 **                                                                           **
 *******************************************************************************

 DFT| Spin unrestricted (spin-polarized) Kohn-Sham calculation               UKS
 DFT| Multiplicity                                                             9
 DFT| Number of spin states                                                    2
 DFT| Charge                                                                   0
 DFT| Self-interaction correction (SIC)                                       NO
 DFT| Cutoffs: density                                              1.000000E-10
 DFT|          gradient                                             1.000000E-10
 DFT|          tau                                                  1.000000E-10
 DFT|          cutoff_smoothing_range                               0.000000E+00
 DFT| XC density smoothing                                                  NONE
 DFT| XC derivatives                                                          PW
 FUNCTIONAL| ROUTINE=NEW
 FUNCTIONAL| PBE:
 FUNCTIONAL| J.P.Perdew, K.Burke, M.Ernzerhof, Phys. Rev. Letter, vol. 77, n 18,
 FUNCTIONAL|  pp. 3865-3868, (1996){spin polarized}                             
 vdW POTENTIAL|                                                   Pair Potential
 vdW POTENTIAL|          DFT-D3 (Version 3.1)
 vdW POTENTIAL|          Potential Form: S. Grimme et al, JCP 132: 154104 (2010)
 vdW POTENTIAL|          BJ Damping: S. Grimme et al, JCC 32: 1456 (2011)
 vdW POTENTIAL|          Cutoff Radius [Bohr]:                             20.00
 vdW POTENTIAL|          s6 Scaling Factor:                               1.0000
 vdW POTENTIAL|          a1 Damping Factor:                               0.4289
 vdW POTENTIAL|          s8 Scaling Factor:                               0.7875
 vdW POTENTIAL|          a2 Damping Factor:                               4.4407
 vdW POTENTIAL|          Cutoff for CN calculation:                   0.1000E-05

 QS| Method:                                                                 GPW
 QS| Density plane wave grid type                        NON-SPHERICAL FULLSPACE
 QS| Number of grid levels:                                                    5
 QS| Density cutoff [a.u.]:                                                180.0
 QS| Multi grid cutoff [a.u.]: 1) grid level                               180.0
 QS|                           2) grid level                                60.0
 QS|                           3) grid level                                20.0
 QS|                           4) grid level                                 6.7
 QS|                           5) grid level                                 2.2
 QS| Grid level progression factor:                                          3.0
 QS| Relative density cutoff [a.u.]:                                        40.0
 QS| Consistent realspace mapping and integration 
 QS| Interaction thresholds: eps_pgf_orb:                                1.0E-05
 QS|                         eps_filter_matrix:                          0.0E+00
 QS|                         eps_core_charge:                            1.0E-12
 QS|                         eps_rho_gspace:                             1.0E-10
 QS|                         eps_rho_rspace:                             1.0E-10
 QS|                         eps_gvg_rspace:                             1.0E-05
 QS|                         eps_ppl:                                    1.0E-02
 QS|                         eps_ppnl:                                   1.0E-07


 ATOMIC KIND INFORMATION

  1. Atomic kind: C                                     Number of atoms:     264

     Orbital Basis Set                                     DZVP-MOLOPT-SR-GTH-q4

       Number of orbital shell sets:                                           1
       Number of orbital shells:                                               5
       Number of primitive Cartesian functions:                                5
       Number of Cartesian basis functions:                                   14
       Number of spherical basis functions:                                   13
       Norm type:                                                              2

       Normalised Cartesian orbitals:

                        Set   Shell   Orbital            Exponent    Coefficient

                          1       1    2s                5.605331       0.322515
                                                         2.113016       0.213043
                                                         0.769911      -0.209686
                                                         0.348157      -0.219794
                                                         0.128212      -0.022789

                          1       2    3s                5.605331       0.552234
                                                         2.113016       0.082072
                                                         0.769911       0.007843
                                                         0.348157       0.136893
                                                         0.128212       0.074283

                          1       3    3px               5.605331      -0.703879
                                                         2.113016      -0.642521
                                                         0.769911      -0.374851
                                                         0.348157      -0.139743
                                                         0.128212      -0.027849
                          1       3    3py               5.605331      -0.703879
                                                         2.113016      -0.642521
                                                         0.769911      -0.374851
                                                         0.348157      -0.139743
                                                         0.128212      -0.027849
                          1       3    3pz               5.605331      -0.703879
                                                         2.113016      -0.642521
                                                         0.769911      -0.374851
                                                         0.348157      -0.139743
                                                         0.128212      -0.027849

                          1       4    4px               5.605331      -0.480376
                                                         2.113016      -0.552894
                                                         0.769911      -0.316145
                                                         0.348157       0.210505
                                                         0.128212       0.076095
                          1       4    4py               5.605331      -0.480376
                                                         2.113016      -0.552894
                                                         0.769911      -0.316145
                                                         0.348157       0.210505
                                                         0.128212       0.076095
                          1       4    4pz               5.605331      -0.480376
                                                         2.113016      -0.552894
                                                         0.769911      -0.316145
                                                         0.348157       0.210505
                                                         0.128212       0.076095

                          1       5    4dx2              5.605331       0.640026
                                                         2.113016       0.274300
                                                         0.769911       0.446711
                                                         0.348157       0.028674
                                                         0.128212       0.029790
                          1       5    4dxy              5.605331       1.108557
                                                         2.113016       0.475102
                                                         0.769911       0.773726
                                                         0.348157       0.049666
                                                         0.128212       0.051599
                          1       5    4dxz              5.605331       1.108557
                                                         2.113016       0.475102
                                                         0.769911       0.773726
                                                         0.348157       0.049666
                                                         0.128212       0.051599
                          1       5    4dy2              5.605331       0.640026
                                                         2.113016       0.274300
                                                         0.769911       0.446711
                                                         0.348157       0.028674
                                                         0.128212       0.029790
                          1       5    4dyz              5.605331       1.108557
                                                         2.113016       0.475102
                                                         0.769911       0.773726
                                                         0.348157       0.049666
                                                         0.128212       0.051599
                          1       5    4dz2              5.605331       0.640026
                                                         2.113016       0.274300
                                                         0.769911       0.446711
                                                         0.348157       0.028674
                                                         0.128212       0.029790

     GTH Potential information for                                    GTH-PBE-q4

       Description:                       Goedecker-Teter-Hutter pseudopotential
                                           Goedecker et al., PRB 54, 1703 (1996)
                                          Hartwigsen et al., PRB 58, 3641 (1998)
                                                      Krack, TCA 114, 145 (2005)

       Gaussian exponent of the core charge distribution:               4.364419
       Electronic configuration (s p d ...):                               2   2

       Parameters of the local part of the GTH pseudopotential:

                          rloc        C1          C2          C3          C4
                        0.338471   -8.803674    1.339211

       Parameters of the non-local part of the GTH pseudopotential:

                   l      r(l)      h(i,j,l)

                   0    0.302576    9.622487
                   1    0.291507

  2. Atomic kind: Zr                                    Number of atoms:      18

     Orbital Basis Set                                    DZVP-MOLOPT-SR-GTH-q12

       Number of orbital shell sets:                                           1
       Number of orbital shells:                                               8
       Number of primitive Cartesian functions:                                7
       Number of Cartesian basis functions:                                   31
       Number of spherical basis functions:                                   26
       Norm type:                                                              2

       Normalised Cartesian orbitals:

                        Set   Shell   Orbital            Exponent    Coefficient

                          1       1    2s                7.568386      -0.292925
                                                         2.940870       1.053802
                                                         1.478550      -0.194175
                                                         0.699653      -0.477593
                                                         0.314575      -0.092850
                                                         0.129869       0.000474
                                                         0.046851      -0.000485

                          1       2    3s                7.568386      -0.107602
                                                         2.940870       0.453694
                                                         1.478550      -0.133469
                                                         0.699653      -0.242646
                                                         0.314575      -0.112324
                                                         0.129869       0.079936
                                                         0.046851       0.057275

                          1       3    4s                7.568386      -0.039443
                                                         2.940870      -0.239516
                                                         1.478550       0.462939
                                                         0.699653       0.054202
                                                         0.314575       0.378792
                                                         0.129869      -0.467495
                                                         0.046851       0.135277

                          1       4    3px               7.568386      -0.367032
                                                         2.940870       1.199938
                                                         1.478550      -0.729727
                                                         0.699653      -0.527717
                                                         0.314575      -0.102074
                                                         0.129869      -0.002163
                                                         0.046851      -0.000016
                          1       4    3py               7.568386      -0.367032
                                                         2.940870       1.199938
                                                         1.478550      -0.729727
                                                         0.699653      -0.527717
                                                         0.314575      -0.102074
                                                         0.129869      -0.002163
                                                         0.046851      -0.000016
                          1       4    3pz               7.568386      -0.367032
                                                         2.940870       1.199938
                                                         1.478550      -0.729727
                                                         0.699653      -0.527717
                                                         0.314575      -0.102074
                                                         0.129869      -0.002163
                                                         0.046851      -0.000016

                          1       5    4px               7.568386      -0.041149
                                                         2.940870       0.296409
                                                         1.478550      -0.285807
                                                         0.699653      -0.254468
                                                         0.314575       0.008755
                                                         0.129869       0.053085
                                                         0.046851       0.019526
                          1       5    4py               7.568386      -0.041149
                                                         2.940870       0.296409
                                                         1.478550      -0.285807
                                                         0.699653      -0.254468
                                                         0.314575       0.008755
                                                         0.129869       0.053085
                                                         0.046851       0.019526
                          1       5    4pz               7.568386      -0.041149
                                                         2.940870       0.296409
                                                         1.478550      -0.285807
                                                         0.699653      -0.254468
                                                         0.314575       0.008755
                                                         0.129869       0.053085
                                                         0.046851       0.019526

                          1       6    4dx2              7.568386      -0.104612
                                                         2.940870      -0.141339
                                                         1.478550       0.540679
                                                         0.699653       0.284252
                                                         0.314575       0.094561
                                                         0.129869       0.012195
                                                         0.046851       0.000412
                          1       6    4dxy              7.568386      -0.181193
                                                         2.940870      -0.244806
                                                         1.478550       0.936483
                                                         0.699653       0.492339
                                                         0.314575       0.163785
                                                         0.129869       0.021122
                                                         0.046851       0.000713
                          1       6    4dxz              7.568386      -0.181193
                                                         2.940870      -0.244806
                                                         1.478550       0.936483
                                                         0.699653       0.492339
                                                         0.314575       0.163785
                                                         0.129869       0.021122
                                                         0.046851       0.000713
                          1       6    4dy2              7.568386      -0.104612
                                                         2.940870      -0.141339
                                                         1.478550       0.540679
                                                         0.699653       0.284252
                                                         0.314575       0.094561
                                                         0.129869       0.012195
                                                         0.046851       0.000412
                          1       6    4dyz              7.568386      -0.181193
                                                         2.940870      -0.244806
                                                         1.478550       0.936483
                                                         0.699653       0.492339
                                                         0.314575       0.163785
                                                         0.129869       0.021122
                                                         0.046851       0.000713
                          1       6    4dz2              7.568386      -0.104612
                                                         2.940870      -0.141339
                                                         1.478550       0.540679
                                                         0.699653       0.284252
                                                         0.314575       0.094561
                                                         0.129869       0.012195
                                                         0.046851       0.000412

                          1       7    5dx2              7.568386      -0.107600
                                                         2.940870       0.230973
                                                         1.478550      -0.200541
                                                         0.699653      -0.193347
                                                         0.314575       0.007888
                                                         0.129869       0.006706
                                                         0.046851       0.006900
                          1       7    5dxy              7.568386      -0.186369
                                                         2.940870       0.400056
                                                         1.478550      -0.347346
                                                         0.699653      -0.334887
                                                         0.314575       0.013663
                                                         0.129869       0.011615
                                                         0.046851       0.011951
                          1       7    5dxz              7.568386      -0.186369
                                                         2.940870       0.400056
                                                         1.478550      -0.347346
                                                         0.699653      -0.334887
                                                         0.314575       0.013663
                                                         0.129869       0.011615
                                                         0.046851       0.011951
                          1       7    5dy2              7.568386      -0.107600
                                                         2.940870       0.230973
                                                         1.478550      -0.200541
                                                         0.699653      -0.193347
                                                         0.314575       0.007888
                                                         0.129869       0.006706
                                                         0.046851       0.006900
                          1       7    5dyz              7.568386      -0.186369
                                                         2.940870       0.400056
                                                         1.478550      -0.347346
                                                         0.699653      -0.334887
                                                         0.314575       0.013663
                                                         0.129869       0.011615
                                                         0.046851       0.011951
                          1       7    5dz2              7.568386      -0.107600
                                                         2.940870       0.230973
                                                         1.478550      -0.200541
                                                         0.699653      -0.193347
                                                         0.314575       0.007888
                                                         0.129869       0.006706
                                                         0.046851       0.006900

                          1       8    5fx3              7.568386       0.371480
                                                         2.940870      -0.155968
                                                         1.478550      -0.211323
                                                         0.699653      -0.255968
                                                         0.314575      -0.046738
                                                         0.129869      -0.005674
                                                         0.046851       0.000171
                          1       8    5fx2y             7.568386       0.830655
                                                         2.940870      -0.348756
                                                         1.478550      -0.472533
                                                         0.699653      -0.572361
                                                         0.314575      -0.104510
                                                         0.129869      -0.012687
                                                         0.046851       0.000382
                          1       8    5fx2z             7.568386       0.830655
                                                         2.940870      -0.348756
                                                         1.478550      -0.472533
                                                         0.699653      -0.572361
                                                         0.314575      -0.104510
                                                         0.129869      -0.012687
                                                         0.046851       0.000382
                          1       8    5fxy2             7.568386       0.830655
                                                         2.940870      -0.348756
                                                         1.478550      -0.472533
                                                         0.699653      -0.572361
                                                         0.314575      -0.104510
                                                         0.129869      -0.012687
                                                         0.046851       0.000382
                          1       8    5fxyz             7.568386       1.438737
                                                         2.940870      -0.604063
                                                         1.478550      -0.818452
                                                         0.699653      -0.991359
                                                         0.314575      -0.181017
                                                         0.129869      -0.021975
                                                         0.046851       0.000662
                          1       8    5fxz2             7.568386       0.830655
                                                         2.940870      -0.348756
                                                         1.478550      -0.472533
                                                         0.699653      -0.572361
                                                         0.314575      -0.104510
                                                         0.129869      -0.012687
                                                         0.046851       0.000382
                          1       8    5fy3              7.568386       0.371480
                                                         2.940870      -0.155968
                                                         1.478550      -0.211323
                                                         0.699653      -0.255968
                                                         0.314575      -0.046738
                                                         0.129869      -0.005674
                                                         0.046851       0.000171
                          1       8    5fy2z             7.568386       0.830655
                                                         2.940870      -0.348756
                                                         1.478550      -0.472533
                                                         0.699653      -0.572361
                                                         0.314575      -0.104510
                                                         0.129869      -0.012687
                                                         0.046851       0.000382
                          1       8    5fyz2             7.568386       0.830655
                                                         2.940870      -0.348756
                                                         1.478550      -0.472533
                                                         0.699653      -0.572361
                                                         0.314575      -0.104510
                                                         0.129869      -0.012687
                                                         0.046851       0.000382
                          1       8    5fz3              7.568386       0.371480
                                                         2.940870      -0.155968
                                                         1.478550      -0.211323
                                                         0.699653      -0.255968
                                                         0.314575      -0.046738
                                                         0.129869      -0.005674
                                                         0.046851       0.000171

     GTH Potential information for                                   GTH-PBE-q12

       Description:                       Goedecker-Teter-Hutter pseudopotential
                                           Goedecker et al., PRB 54, 1703 (1996)
                                          Hartwigsen et al., PRB 58, 3641 (1998)
                                                      Krack, TCA 114, 145 (2005)

       Gaussian exponent of the core charge distribution:               2.263468
       Electronic configuration (s p d ...):                           4   6   2

       Parameters of the local part of the GTH pseudopotential:

                          rloc        C1          C2          C3          C4
                        0.470000    7.796057   -1.893210

       Parameters of the non-local part of the GTH pseudopotential:

                   l      r(l)      h(i,j,l)

                   0    0.259829   23.380874   -8.571939
                                   -8.571939   11.066326
                   1    0.288969    8.592766   -5.377358
                                   -5.377358    6.362576
                   2    0.581245    0.027811    0.276862
                                    0.276862   -0.313932

  3. Atomic kind: H                                     Number of atoms:     186

     Orbital Basis Set                                     DZVP-MOLOPT-SR-GTH-q1

       Number of orbital shell sets:                                           1
       Number of orbital shells:                                               3
       Number of primitive Cartesian functions:                                5
       Number of Cartesian basis functions:                                    5
       Number of spherical basis functions:                                    5
       Norm type:                                                              2

       Normalised Cartesian orbitals:

                        Set   Shell   Orbital            Exponent    Coefficient

                          1       1    2s               10.068468      -0.133023
                                                         2.680223      -0.177618
                                                         0.791502      -0.258419
                                                         0.239116      -0.107525
                                                         0.082193      -0.014019

                          1       2    3s               10.068468       0.344673
                                                         2.680223       1.819821
                                                         0.791502      -0.999069
                                                         0.239116       0.017430
                                                         0.082193       0.082660

                          1       3    3px              10.068468       0.155326
                                                         2.680223       0.367157
                                                         0.791502       0.311480
                                                         0.239116       0.080105
                                                         0.082193       0.033440
                          1       3    3py              10.068468       0.155326
                                                         2.680223       0.367157
                                                         0.791502       0.311480
                                                         0.239116       0.080105
                                                         0.082193       0.033440
                          1       3    3pz              10.068468       0.155326
                                                         2.680223       0.367157
                                                         0.791502       0.311480
                                                         0.239116       0.080105
                                                         0.082193       0.033440

     GTH Potential information for                                    GTH-PBE-q1

       Description:                       Goedecker-Teter-Hutter pseudopotential
                                           Goedecker et al., PRB 54, 1703 (1996)
                                          Hartwigsen et al., PRB 58, 3641 (1998)
                                                      Krack, TCA 114, 145 (2005)

       Gaussian exponent of the core charge distribution:              12.500000
       Electronic configuration (s p d ...):                                   1

       Parameters of the local part of the GTH pseudopotential:

                          rloc        C1          C2          C3          C4
                        0.200000   -4.178900    0.724463

  4. Atomic kind: O                                     Number of atoms:     103

     Orbital Basis Set                                     DZVP-MOLOPT-SR-GTH-q6

       Number of orbital shell sets:                                           1
       Number of orbital shells:                                               5
       Number of primitive Cartesian functions:                                5
       Number of Cartesian basis functions:                                   14
       Number of spherical basis functions:                                   13
       Norm type:                                                              2

       Normalised Cartesian orbitals:

                        Set   Shell   Orbital            Exponent    Coefficient

                          1       1    2s               10.389228       0.396646
                                                         3.849621       0.208811
                                                         1.388401      -0.301641
                                                         0.496955      -0.274061
                                                         0.162492      -0.033677

                          1       2    3s               10.389228       0.303673
                                                         3.849621       0.240943
                                                         1.388401      -0.313066
                                                         0.496955      -0.043055
                                                         0.162492       0.213991

                          1       3    3px              10.389228      -1.530415
                                                         3.849621      -1.371928
                                                         1.388401      -0.761951
                                                         0.496955      -0.253695
                                                         0.162492      -0.035541
                          1       3    3py              10.389228      -1.530415
                                                         3.849621      -1.371928
                                                         1.388401      -0.761951
                                                         0.496955      -0.253695
                                                         0.162492      -0.035541
                          1       3    3pz              10.389228      -1.530415
                                                         3.849621      -1.371928
                                                         1.388401      -0.761951
                                                         0.496955      -0.253695
                                                         0.162492      -0.035541

                          1       4    4px              10.389228      -0.565392
                                                         3.849621      -0.038231
                                                         1.388401      -0.382373
                                                         0.496955       0.179070
                                                         0.162492       0.122714
                          1       4    4py              10.389228      -0.565392
                                                         3.849621      -0.038231
                                                         1.388401      -0.382373
                                                         0.496955       0.179070
                                                         0.162492       0.122714
                          1       4    4pz              10.389228      -0.565392
                                                         3.849621      -0.038231
                                                         1.388401      -0.382373
                                                         0.496955       0.179070
                                                         0.162492       0.122714

                          1       5    4dx2             10.389228       1.867377
                                                         3.849621       0.670994
                                                         1.388401       1.353441
                                                         0.496955       0.273538
                                                         0.162492       0.006620
                          1       5    4dxy             10.389228       3.234392
                                                         3.849621       1.162195
                                                         1.388401       2.344229
                                                         0.496955       0.473781
                                                         0.162492       0.011466
                          1       5    4dxz             10.389228       3.234392
                                                         3.849621       1.162195
                                                         1.388401       2.344229
                                                         0.496955       0.473781
                                                         0.162492       0.011466
                          1       5    4dy2             10.389228       1.867377
                                                         3.849621       0.670994
                                                         1.388401       1.353441
                                                         0.496955       0.273538
                                                         0.162492       0.006620
                          1       5    4dyz             10.389228       3.234392
                                                         3.849621       1.162195
                                                         1.388401       2.344229
                                                         0.496955       0.473781
                                                         0.162492       0.011466
                          1       5    4dz2             10.389228       1.867377
                                                         3.849621       0.670994
                                                         1.388401       1.353441
                                                         0.496955       0.273538
                                                         0.162492       0.006620

     GTH Potential information for                                    GTH-PBE-q6

       Description:                       Goedecker-Teter-Hutter pseudopotential
                                           Goedecker et al., PRB 54, 1703 (1996)
                                          Hartwigsen et al., PRB 58, 3641 (1998)
                                                      Krack, TCA 114, 145 (2005)

       Gaussian exponent of the core charge distribution:               8.360253
       Electronic configuration (s p d ...):                               2   4

       Parameters of the local part of the GTH pseudopotential:

                          rloc        C1          C2          C3          C4
                        0.244554  -16.667215    2.487311

       Parameters of the non-local part of the GTH pseudopotential:

                   l      r(l)      h(i,j,l)

                   0    0.220956   18.337458
                   1    0.211332

  5. Atomic kind: Ni                                    Number of atoms:       4

     Orbital Basis Set                                    DZVP-MOLOPT-SR-GTH-q18

       Number of orbital shell sets:                                           1
       Number of orbital shells:                                               8
       Number of primitive Cartesian functions:                                6
       Number of Cartesian basis functions:                                   31
       Number of spherical basis functions:                                   26
       Norm type:                                                              2

       Normalised Cartesian orbitals:

                        Set   Shell   Orbital            Exponent    Coefficient

                          1       1    2s               10.077428      -0.684558
                                                         5.847736      -0.844524
                                                         2.494033       1.088856
                                                         0.988355       0.395503
                                                         0.344978       0.010224
                                                         0.099466      -0.003250

                          1       2    3s               10.077428       0.096747
                                                         5.847736       0.162504
                                                         2.494033      -0.297192
                                                         0.988355      -0.319752
                                                         0.344978       0.088318
                                                         0.099466       0.118587

                          1       3    4s               10.077428       0.036437
                                                         5.847736      -0.381480
                                                         2.494033       0.003759
                                                         0.988355      -1.048256
                                                         0.344978       0.855825
                                                         0.099466      -0.176350

                          1       4    3px              10.077428      -3.133913
                                                         5.847736       3.027656
                                                         2.494033       2.353227
                                                         0.988355       0.554184
                                                         0.344978       0.019462
                                                         0.099466      -0.000291
                          1       4    3py              10.077428      -3.133913
                                                         5.847736       3.027656
                                                         2.494033       2.353227
                                                         0.988355       0.554184
                                                         0.344978       0.019462
                                                         0.099466      -0.000291
                          1       4    3pz              10.077428      -3.133913
                                                         5.847736       3.027656
                                                         2.494033       2.353227
                                                         0.988355       0.554184
                                                         0.344978       0.019462
                                                         0.099466      -0.000291

                          1       5    4px              10.077428      -0.112729
                                                         5.847736      -0.114008
                                                         2.494033      -0.347303
                                                         0.988355      -0.110323
                                                         0.344978       0.154096
                                                         0.099466       0.058386
                          1       5    4py              10.077428      -0.112729
                                                         5.847736      -0.114008
                                                         2.494033      -0.347303
                                                         0.988355      -0.110323
                                                         0.344978       0.154096
                                                         0.099466       0.058386
                          1       5    4pz              10.077428      -0.112729
                                                         5.847736      -0.114008
                                                         2.494033      -0.347303
                                                         0.988355      -0.110323
                                                         0.344978       0.154096
                                                         0.099466       0.058386

                          1       6    4dx2             10.077428       8.232726
                                                         5.847736       9.105758
                                                         2.494033       2.849835
                                                         0.988355       0.554319
                                                         0.344978       0.067245
                                                         0.099466       0.001940
                          1       6    4dxy             10.077428      14.259500
                                                         5.847736      15.771636
                                                         2.494033       4.936060
                                                         0.988355       0.960109
                                                         0.344978       0.116472
                                                         0.099466       0.003360
                          1       6    4dxz             10.077428      14.259500
                                                         5.847736      15.771636
                                                         2.494033       4.936060
                                                         0.988355       0.960109
                                                         0.344978       0.116472
                                                         0.099466       0.003360
                          1       6    4dy2             10.077428       8.232726
                                                         5.847736       9.105758
                                                         2.494033       2.849835
                                                         0.988355       0.554319
                                                         0.344978       0.067245
                                                         0.099466       0.001940
                          1       6    4dyz             10.077428      14.259500
                                                         5.847736      15.771636
                                                         2.494033       4.936060
                                                         0.988355       0.960109
                                                         0.344978       0.116472
                                                         0.099466       0.003360
                          1       6    4dz2             10.077428       8.232726
                                                         5.847736       9.105758
                                                         2.494033       2.849835
                                                         0.988355       0.554319
                                                         0.344978       0.067245
                                                         0.099466       0.001940

                          1       7    5dx2             10.077428      -2.715373
                                                         5.847736      -4.020640
                                                         2.494033      -1.397569
                                                         0.988355      -0.076143
                                                         0.344978       0.033435
                                                         0.099466       0.026032
                          1       7    5dxy             10.077428      -4.703164
                                                         5.847736      -6.963952
                                                         2.494033      -2.420661
                                                         0.988355      -0.131883
                                                         0.344978       0.057911
                                                         0.099466       0.045088
                          1       7    5dxz             10.077428      -4.703164
                                                         5.847736      -6.963952
                                                         2.494033      -2.420661
                                                         0.988355      -0.131883
                                                         0.344978       0.057911
                                                         0.099466       0.045088
                          1       7    5dy2             10.077428      -2.715373
                                                         5.847736      -4.020640
                                                         2.494033      -1.397569
                                                         0.988355      -0.076143
                                                         0.344978       0.033435
                                                         0.099466       0.026032
                          1       7    5dyz             10.077428      -4.703164
                                                         5.847736      -6.963952
                                                         2.494033      -2.420661
                                                         0.988355      -0.131883
                                                         0.344978       0.057911
                                                         0.099466       0.045088
                          1       7    5dz2             10.077428      -2.715373
                                                         5.847736      -4.020640
                                                         2.494033      -1.397569
                                                         0.988355      -0.076143
                                                         0.344978       0.033435
                                                         0.099466       0.026032

                          1       8    5fx3             10.077428      -0.467694
                                                         5.847736       0.618100
                                                         2.494033       0.066069
                                                         0.988355       0.262898
                                                         0.344978       0.004720
                                                         0.099466       0.007748
                          1       8    5fx2y            10.077428      -1.045795
                                                         5.847736       1.382114
                                                         2.494033       0.147734
                                                         0.988355       0.587859
                                                         0.344978       0.010555
                                                         0.099466       0.017325
                          1       8    5fx2z            10.077428      -1.045795
                                                         5.847736       1.382114
                                                         2.494033       0.147734
                                                         0.988355       0.587859
                                                         0.344978       0.010555
                                                         0.099466       0.017325
                          1       8    5fxy2            10.077428      -1.045795
                                                         5.847736       1.382114
                                                         2.494033       0.147734
                                                         0.988355       0.587859
                                                         0.344978       0.010555
                                                         0.099466       0.017325
                          1       8    5fxyz            10.077428      -1.811371
                                                         5.847736       2.393892
                                                         2.494033       0.255883
                                                         0.988355       1.018201
                                                         0.344978       0.018282
                                                         0.099466       0.030008
                          1       8    5fxz2            10.077428      -1.045795
                                                         5.847736       1.382114
                                                         2.494033       0.147734
                                                         0.988355       0.587859
                                                         0.344978       0.010555
                                                         0.099466       0.017325
                          1       8    5fy3             10.077428      -0.467694
                                                         5.847736       0.618100
                                                         2.494033       0.066069
                                                         0.988355       0.262898
                                                         0.344978       0.004720
                                                         0.099466       0.007748
                          1       8    5fy2z            10.077428      -1.045795
                                                         5.847736       1.382114
                                                         2.494033       0.147734
                                                         0.988355       0.587859
                                                         0.344978       0.010555
                                                         0.099466       0.017325
                          1       8    5fyz2            10.077428      -1.045795
                                                         5.847736       1.382114
                                                         2.494033       0.147734
                                                         0.988355       0.587859
                                                         0.344978       0.010555
                                                         0.099466       0.017325
                          1       8    5fz3             10.077428      -0.467694
                                                         5.847736       0.618100
                                                         2.494033       0.066069
                                                         0.988355       0.262898
                                                         0.344978       0.004720
                                                         0.099466       0.007748

     GTH Potential information for                                   GTH-PBE-q18

       Description:                       Goedecker-Teter-Hutter pseudopotential
                                           Goedecker et al., PRB 54, 1703 (1996)
                                          Hartwigsen et al., PRB 58, 3641 (1998)
                                                      Krack, TCA 114, 145 (2005)

       Gaussian exponent of the core charge distribution:               4.081633
       Electronic configuration (s p d ...):                           4   6   8

       Parameters of the local part of the GTH pseudopotential:

                          rloc        C1          C2          C3          C4
                        0.350000    2.102166    0.648484

       Parameters of the non-local part of the GTH pseudopotential:

                   l      r(l)      h(i,j,l)

                   0    0.261295    0.622658    9.970227
                                    9.970227  -12.871507
                   1    0.224253  -11.142708   12.429566
                                   12.429566  -14.706861
                   2    0.215348  -12.628146


 MOLECULE KIND INFORMATION


 All atoms are their own molecule, skipping detailed information


 TOTAL NUMBERS AND MAXIMUM NUMBERS

  Total number of            - Atomic kinds:                                   5
                             - Atoms:                                        575
                             - Shell sets:                                   575
                             - Shells:                                      2569
                             - Primitive Cartesian functions:               2915
                             - Cartesian basis functions:                   6750
                             - Spherical basis functions:                   6273

  Maximum angular momentum of- Orbital basis functions:                        3
                             - Local part of the GTH pseudopotential:          2
                             - Non-local part of the GTH pseudopotential:      4


 MODULE QUICKSTEP:  ATOMIC COORDINATES IN angstrom

  Atom  Kind  Element       X           Y           Z          Z(eff)       Mass

       1     1 C    6   11.858800   14.053512   13.736416      4.00      12.0107
       2     1 C    6   12.456340   12.890652   13.018072      4.00      12.0107
       3     1 C    6   11.704540   12.171479   12.076681      4.00      12.0107
       4     1 C    6   12.280942   11.109265   11.384377      4.00      12.0107
       5     1 C    6   13.621640   10.739752   11.611857      4.00      12.0107
       6     1 C    6   14.354958   11.443650   12.584962      4.00      12.0107
       7     1 C    6   13.782054   12.508645   13.276429      4.00      12.0107
       8     1 C    6   14.261145    9.649045   10.838503      4.00      12.0107
       9     1 C    6   14.256343    9.656904    9.416811      4.00      12.0107
      10     1 C    6   13.743124   10.759021    8.662933      4.00      12.0107
      11     1 C    6   49.126975   21.233195   13.874550      4.00      12.0107
      12     1 C    6   48.550231   22.401217   13.147487      4.00      12.0107
      13     1 C    6   49.300201   23.068450   12.166404      4.00      12.0107
      14     1 C    6   48.733255   24.107588   11.433200      4.00      12.0107
      15     1 C    6   47.402783   24.509343   11.661990      4.00      12.0107
      16     1 C    6   46.671916   23.860613   12.675651      4.00      12.0107
      17     1 C    6   47.234390   22.815710   13.404985      4.00      12.0107
      18     1 C    6   46.772491   25.587024   10.864744      4.00      12.0107
      19     1 C    6   46.761283   25.557313    9.442988      4.00      12.0107
      20     1 C    6   47.261095   24.442162    8.699496      4.00      12.0107
      21     1 C    6   14.860286    8.570570    8.703557      4.00      12.0107
      22     1 C    6   14.891988    8.597148   11.515162      4.00      12.0107
      23     1 C    6   49.113320   21.203450    2.150462      4.00      12.0107
      24     1 C    6   48.527945   22.364857    2.877677      4.00      12.0107
      25     1 C    6   49.267055   23.025352    3.870810      4.00      12.0107
      26     1 C    6   48.690727   24.059915    4.602277      4.00      12.0107
      27     1 C    6   47.360415   24.456881    4.363827      4.00      12.0107
      28     1 C    6   46.640108   23.812177    3.340103      4.00      12.0107
      29     1 C    6   47.213670   22.776263    2.608337      4.00      12.0107
      30     1 C    6   46.721891   25.531807    5.154850      4.00      12.0107
      31     1 C    6   46.733500   25.528126    6.576554      4.00      12.0107
      32     1 C    6   47.248794   24.428848    7.332944      4.00      12.0107
      33     1 C    6   40.636678   17.162172    7.326073      4.00      12.0107
      34     1 C    6   40.658709   17.184357    4.517254      4.00      12.0107
      35     1 C    6   11.883092   14.086546    2.290651      4.00      12.0107
      36     1 C    6   12.472461   12.910841    2.994945      4.00      12.0107
      37     1 C    6   11.714873   12.177464    3.920860      4.00      12.0107
      38     1 C    6   12.281493   11.095009    4.589239      4.00      12.0107
      39     1 C    6   13.620413   10.721518    4.357596      4.00      12.0107
      40     1 C    6   14.358492   11.437299    3.397041      4.00      12.0107
      41     1 C    6   13.793029   12.518469    2.724380      4.00      12.0107
      42     1 C    6   14.253999    9.624737    5.127971      4.00      12.0107
      43     1 C    6   14.252554    9.644599    6.549807      4.00      12.0107
      44     1 C    6   13.742623   10.753515    7.296890      4.00      12.0107
      45     1 C    6   22.512633    3.244109   13.748255      4.00      12.0107
      46     1 C    6   23.229274    4.347829   13.049258      4.00      12.0107
      47     1 C    6   24.226035    4.064970   12.103606      4.00      12.0107
      48     1 C    6   24.855551    5.102618   11.421236      4.00      12.0107
      49     1 C    6   24.503988    6.445214   11.664365      4.00      12.0107
      50     1 C    6   23.535665    6.719590   12.647318      4.00      12.0107
      51     1 C    6   22.901374    5.683754   13.328113      4.00      12.0107
      52     1 C    6   25.111982    7.549941   10.888288      4.00      12.0107
      53     1 C    6   25.083212    7.542875    9.466888      4.00      12.0107
      54     1 C    6   24.378710    6.544967    8.721113      4.00      12.0107
      55     1 C    6   38.303622   31.929513   13.843969      4.00      12.0107
      56     1 C    6   37.576315   30.838426   13.134178      4.00      12.0107
      57     1 C    6   36.618503   31.139548   12.154047      4.00      12.0107
      58     1 C    6   36.004616   30.117105   11.435915      4.00      12.0107
      59     1 C    6   36.333629   28.768865   11.677115      4.00      12.0107
      60     1 C    6   37.261708   28.475185   12.693703      4.00      12.0107
      61     1 C    6   37.879978   29.496349   13.410267      4.00      12.0107
      62     1 C    6   35.734109   27.675617   10.880063      4.00      12.0107
      63     1 C    6   35.767019   27.690297    9.458876      4.00      12.0107
      64     1 C    6   36.475147   28.691566    8.722155      4.00      12.0107
      65     1 C    6   25.706934    8.612267    8.746902      4.00      12.0107
      66     1 C    6   25.711449    8.623458   11.558921      4.00      12.0107
      67     1 C    6   38.329619   31.962491    2.161410      4.00      12.0107
      68     1 C    6   37.609858   30.888414    2.903987      4.00      12.0107
      69     1 C    6   36.683636   31.195731    3.912201      4.00      12.0107
      70     1 C    6   36.076171   30.176007    4.642236      4.00      12.0107
      71     1 C    6   36.380680   28.824018    4.386822      4.00      12.0107
      72     1 C    6   37.284562   28.526660    3.348681      4.00      12.0107
      73     1 C    6   37.894366   29.542880    2.620273      4.00      12.0107
      74     1 C    6   35.774548   27.723802    5.170518      4.00      12.0107
      75     1 C    6   35.787524   27.715062    6.592354      4.00      12.0107
      76     1 C    6   36.484640   28.703639    7.355671      4.00      12.0107
      77     1 C    6   46.135486   26.620764    7.286688      4.00      12.0107
      78     1 C    6   46.088099   26.580271    4.478808      4.00      12.0107
      79     1 C    6   22.461081    3.255818    2.262793      4.00      12.0107
      80     1 C    6   23.155484    4.363894    2.985596      4.00      12.0107
      81     1 C    6   24.158159    4.076959    3.925587      4.00      12.0107
      82     1 C    6   24.786771    5.106464    4.621727      4.00      12.0107
      83     1 C    6   24.432889    6.452594    4.400678      4.00      12.0107
      84     1 C    6   23.453356    6.732770    3.429113      4.00      12.0107
      85     1 C    6   22.820061    5.703523    2.733368      4.00      12.0107
      86     1 C    6   25.064762    7.549784    5.175106      4.00      12.0107
      87     1 C    6   25.059315    7.542363    6.597908      4.00      12.0107
      88     1 C    6   24.365456    6.545749    7.354481      4.00      12.0107
      89     1 C    6   26.620112   17.859678   13.779857      4.00      12.0107
      90     1 C    6   25.311518   17.902161   13.054662      4.00      12.0107
      91     1 C    6   25.056328   18.892829   12.093649      4.00      12.0107
      92     1 C    6   23.843516   18.912848   11.407197      4.00      12.0107
      93     1 C    6   22.849833   17.944891   11.659158      4.00      12.0107
      94     1 C    6   23.102242   16.976101   12.648669      4.00      12.0107
      95     1 C    6   24.316998   16.951047   13.332911      4.00      12.0107
      96     1 C    6   21.576780   17.929795   10.894557      4.00      12.0107
      97     1 C    6   21.576170   17.905257    9.472002      4.00      12.0107
      98     1 C    6   22.781399   17.778983    8.711349      4.00      12.0107
      99     1 C    6   34.440023   17.195833   13.918070      4.00      12.0107
     100     1 C    6   35.731014   17.156536   13.167165      4.00      12.0107
     101     1 C    6   35.940400   16.191102   12.170110      4.00      12.0107
     102     1 C    6   37.119501   16.187758   11.429870      4.00      12.0107
     103     1 C    6   38.122380   17.147030   11.670284      4.00      12.0107
     104     1 C    6   37.915535   18.093532   12.691221      4.00      12.0107
     105     1 C    6   36.732505   18.103537   13.426619      4.00      12.0107
     106     1 C    6   39.378229   17.159638   10.887122      4.00      12.0107
     107     1 C    6   39.376228   17.179451    9.466016      4.00      12.0107
     108     1 C    6   38.170432   17.304878    8.706511      4.00      12.0107
     109     1 C    6   20.329682   17.923708    8.763319      4.00      12.0107
     110     1 C    6   20.351712   17.935023   11.576428      4.00      12.0107
     111     1 C    6   34.479006   17.245807    2.184444      4.00      12.0107
     112     1 C    6   35.783673   17.175675    2.906054      4.00      12.0107
     113     1 C    6   36.002038   16.192695    3.882524      4.00      12.0107
     114     1 C    6   37.187152   16.181110    4.612515      4.00      12.0107
     115     1 C    6   38.181774   17.151248    4.383301      4.00      12.0107
     116     1 C    6   37.970691   18.108597    3.374040      4.00      12.0107
     117     1 C    6   36.782834   18.125736    2.647981      4.00      12.0107
     118     1 C    6   39.427257   17.174421    5.180135      4.00      12.0107
[...]
 flops   256 x   278 x   288         364671664128       0.0%    100.0%      0.0%
 flops   256 x   288 x   278         364671664128       0.0%    100.0%      0.0%
 flops   278 x   256 x   288         364671664128       0.0%    100.0%      0.0%
 flops   278 x   288 x   256         364671664128       0.0%    100.0%      0.0%
 flops   288 x   256 x   278         364671664128       0.0%    100.0%      0.0%
 flops   288 x   278 x   256         364671664128       0.0%    100.0%      0.0%
 flops   256 x   270 x   288         370739773440       0.0%    100.0%      0.0%
 flops   256 x   288 x   270         370739773440       0.0%    100.0%      0.0%
 flops   270 x   256 x   288         370739773440       0.0%    100.0%      0.0%
 flops   270 x   288 x   256         370739773440       0.0%    100.0%      0.0%
 flops   288 x   256 x   270         370739773440       0.0%    100.0%      0.0%
 flops   288 x   270 x   256         370739773440       0.0%    100.0%      0.0%
 flops   288 x   288 x   288         434950373376       0.0%    100.0%      0.0%
 flops    26 x     5 x   256         457616506880       0.0%    100.0%      0.0%
 flops     5 x    26 x   256         461888860160       0.0%    100.0%      0.0%
 flops     5 x     5 x   256         583705702400       0.0%    100.0%      0.0%
 flops    26 x    13 x   270         584152522200       0.0%    100.0%      0.0%
 flops    13 x    26 x   270         588708586440       0.0%    100.0%      0.0%
 flops    26 x    13 x   278         601460745080       0.0%    100.0%      0.0%
 flops    13 x    26 x   278         606151803816       0.0%    100.0%      0.0%
 flops   256 x   256 x   278         648305180672       0.0%    100.0%      0.0%
 flops   256 x   278 x   256         648305180672       0.0%    100.0%      0.0%
 flops   278 x   256 x   256         648305180672       0.0%    100.0%      0.0%
 flops   256 x   256 x   270         659092930560       0.0%    100.0%      0.0%
 flops   256 x   270 x   256         659092930560       0.0%    100.0%      0.0%
 flops   270 x   256 x   256         659092930560       0.0%    100.0%      0.0%
 flops     5 x    13 x   270         665071781400       0.0%    100.0%      0.0%
 flops    13 x     5 x   270         671393642400       0.0%    100.0%      0.0%
 flops     5 x    13 x   278         684777611960       0.0%    100.0%      0.0%
 flops    13 x    14 x    13         685171052020       0.0%    100.0%      0.0%
 flops    13 x     5 x   278         691286787360       0.0%    100.0%      0.0%
 flops   288 x   288 x   256         773245108224       0.0%    100.0%      0.0%
 flops   256 x   288 x   288         773245108224       0.0%    100.0%      0.0%
 flops   288 x   256 x   288         773245108224       0.0%    100.0%      0.0%
 flops   270 x   270 x  1566         924707340000       0.0%    100.0%      0.0%
 flops   278 x   278 x  1566         980316626400       0.0%    100.0%      0.0%
 flops   270 x   288 x  1566         986354496000       0.0%    100.0%      0.0%
 flops   288 x   270 x  1566         986354496000       0.0%    100.0%      0.0%
 flops   278 x   288 x  1566        1015579814400       0.0%    100.0%      0.0%
 flops   288 x   278 x  1566        1015579814400       0.0%    100.0%      0.0%
 flops    13 x    22 x    13        1035020409280       0.0%    100.0%      0.0%
 flops  1566 x   270 x   270        1220157043200       0.0%    100.0%      0.0%
 flops    26 x    13 x   288        1246192047360       0.0%    100.0%      0.0%
 flops    13 x    26 x   288        1255911651072       0.0%    100.0%      0.0%
 flops  1566 x   278 x   278        1293533839872       0.0%    100.0%      0.0%
 flops  1566 x   288 x   270        1301500846080       0.0%    100.0%      0.0%
 flops  1566 x   270 x   288        1301500846080       0.0%    100.0%      0.0%
 flops  1566 x   288 x   278        1340063834112       0.0%    100.0%      0.0%
 flops  1566 x   278 x   288        1340063834112       0.0%    100.0%      0.0%
 flops   256 x   256 x   288        1374657970176       0.0%    100.0%      0.0%
 flops   256 x   288 x   256        1374657970176       0.0%    100.0%      0.0%
 flops   288 x   256 x   256        1374657970176       0.0%    100.0%      0.0%
 flops     5 x    13 x   288        1418819800320       0.0%    100.0%      0.0%
 flops    13 x     5 x   288        1432306437120       0.0%    100.0%      0.0%
 flops   256 x   270 x  1566        1753519104000       0.0%    100.0%      0.0%
 flops   270 x   256 x  1566        1753519104000       0.0%    100.0%      0.0%
 flops   256 x   278 x  1566        1805475225600       0.0%    100.0%      0.0%
 flops   278 x   256 x  1566        1805475225600       0.0%    100.0%      0.0%
 flops   288 x   288 x  1566        2104222924800       0.0%    100.0%      0.0%
 flops    26 x    13 x   256        2215452528640       0.0%    100.0%      0.0%
 flops    13 x    26 x   256        2232731824128       0.0%    100.0%      0.0%
 flops  1566 x   256 x   270        2313779281920       0.0%    100.0%      0.0%
 flops  1566 x   270 x   256        2313779281920       0.0%    100.0%      0.0%
 flops  1566 x   256 x   278        2382335705088       0.0%    100.0%      0.0%
 flops  1566 x   278 x   256        2382335705088       0.0%    100.0%      0.0%
 flops   256 x   256 x   256        2443836391424       0.0%    100.0%      0.0%
 flops     5 x    13 x   256        2522346311680       0.0%    100.0%      0.0%
 flops    13 x     5 x   256        2546322554880       0.0%    100.0%      0.0%
 flops  1566 x   270 x  1566        2577033779040       0.0%    100.0%      0.0%
 flops  1566 x   278 x  1566        2653390335456       0.0%    100.0%      0.0%
 flops    26 x    32 x    26        2712038883840       0.0%    100.0%      0.0%
 flops  1566 x   288 x   288        2776535138304       0.0%    100.0%      0.0%
 flops   270 x   270 x  1569        2779436430000       0.0%    100.0%      0.0%
 flops    13 x    13 x   270        2827363294080       0.0%    100.0%      0.0%
 flops    13 x    13 x   278        2911137021312       0.0%    100.0%      0.0%
 flops   278 x   278 x  1569        2946583882800       0.0%    100.0%      0.0%
 flops   270 x   288 x  1569        2964732192000       0.0%    100.0%      0.0%
 flops   288 x   270 x  1569        2964732192000       0.0%    100.0%      0.0%
 flops   278 x   288 x  1569        3052576108800       0.0%    100.0%      0.0%
 flops   288 x   278 x  1569        3052576108800       0.0%    100.0%      0.0%
 flops  1569 x   270 x   270        3667483526400       0.0%    100.0%      0.0%
 flops   256 x   288 x  1566        3740840755200       0.0%    100.0%      0.0%
 flops   288 x   256 x  1566        3740840755200       0.0%    100.0%      0.0%
 flops  1569 x   278 x   278        3888035622144       0.0%    100.0%      0.0%
 flops  1569 x   270 x   288        3911982428160       0.0%    100.0%      0.0%
 flops  1569 x   288 x   270        3911982428160       0.0%    100.0%      0.0%
 flops  1569 x   278 x   288        4027893018624       0.0%    100.0%      0.0%
 flops  1569 x   288 x   278        4027893018624       0.0%    100.0%      0.0%
 flops     5 x    32 x    26        4392323844480       0.0%    100.0%      0.0%
 flops    26 x    32 x     5        4392323844480       0.0%    100.0%      0.0%
 flops  1566 x   288 x   256        4936062468096       0.0%    100.0%      0.0%
 flops  1566 x   256 x   288        4936062468096       0.0%    100.0%      0.0%
 flops   256 x   270 x  1569        5270635008000       0.0%    100.0%      0.0%
 flops   270 x   256 x  1569        5270635008000       0.0%    100.0%      0.0%
 flops   256 x   278 x  1569        5426801971200       0.0%    100.0%      0.0%
 flops   278 x   256 x  1569        5426801971200       0.0%    100.0%      0.0%
 flops     5 x    32 x     5        5495419670400       0.0%    100.0%      0.0%
 flops  1566 x   288 x  1566        5497672061952       0.0%    100.0%      0.0%
 flops    13 x    13 x   288        6031708360704       0.0%    100.0%      0.0%
 flops   288 x   288 x  1569        6324762009600       0.0%    100.0%      0.0%
 flops   256 x   256 x  1566        6650383564800       0.0%    100.0%      0.0%
 flops  1569 x   256 x   270        6954635427840       0.0%    100.0%      0.0%
 flops  1569 x   270 x   256        6954635427840       0.0%    100.0%      0.0%
 flops  1569 x   256 x   278        7160698699776       0.0%    100.0%      0.0%
 flops  1569 x   278 x   256        7160698699776       0.0%    100.0%      0.0%
 flops  1569 x   270 x  1566        7745911876080       0.0%    100.0%      0.0%
 flops  1566 x   270 x  1569        7745911876080       0.0%    100.0%      0.0%
 flops  1569 x   278 x  1566        7975420376112       0.0%    100.0%      0.0%
 flops  1566 x   278 x  1569        7975420376112       0.0%    100.0%      0.0%
 flops  1569 x   288 x   288        8345562513408       0.0%    100.0%      0.0%
 flops  1566 x   256 x   256        8775222165504       0.0%    100.0%      0.0%
 flops  1566 x   256 x  1566        9773639221248       0.0%    100.0%      0.0%
 flops    13 x    13 x   256       10723037085696       0.0%    100.0%      0.0%
 flops   256 x   288 x  1569       11244021350400       0.0%    100.0%      0.0%
 flops   288 x   256 x  1569       11244021350400       0.0%    100.0%      0.0%
 flops  1569 x   256 x   288       14836555579392       0.0%    100.0%      0.0%
 flops  1569 x   288 x   256       14836555579392       0.0%    100.0%      0.0%
 flops  1566 x   288 x  1569       16524612002304       0.0%    100.0%      0.0%
 flops  1569 x   288 x  1566       16524612002304       0.0%    100.0%      0.0%
 flops   256 x   256 x  1569       19989371289600       0.0%    100.0%      0.0%
 flops    13 x    32 x    26       21248235081216       0.0%    100.0%      0.0%
 flops    26 x    32 x    13       21248235081216       0.0%    100.0%      0.0%
 flops  1569 x   270 x  1569       23282252363160       0.0%    100.0%      0.0%
 flops  1569 x   278 x  1569       23972096877624       0.0%    100.0%      0.0%
 flops     5 x    32 x    13       24212184796800       0.0%    100.0%      0.0%
 flops    13 x    32 x     5       24212184796800       0.0%    100.0%      0.0%
 flops  1569 x   256 x   256       26376098807808       0.0%    100.0%      0.0%
 flops  1569 x   256 x  1566       29377088004096       0.0%    100.0%      0.0%
 flops  1566 x   256 x  1569       29377088004096       0.0%    100.0%      0.0%
 flops  1569 x   288 x  1569       49668805041408       0.0%    100.0%      0.0%
 flops  1569 x   256 x  1569       88300097851392       0.0%    100.0%      0.0%
 flops    13 x    32 x    13      101362453283520       0.0%    100.0%      0.0%
 flops inhomo. stacks                           0       0.0%      0.0%      0.0%
 flops total                       882.645936E+12       0.0%    100.0%      0.0%
 flops max/rank                     59.706379E+12       0.0%    100.0%      0.0%
 matmuls inhomo. stacks                         0       0.0%      0.0%      0.0%
 matmuls total                        29096828422       0.0%    100.0%      0.0%
 number of processed stacks              37688072       0.0%    100.0%      0.0%
 average stack size                                     0.0     772.0       0.0
 marketing flops                     1.632240E+15
 -------------------------------------------------------------------------------
 # multiplications                          44261
 max memory usage/rank               2.210972E+09
 # max total images/rank                        1
 # max 3D layers                                1
 # MPI messages exchanged                 4249056
 MPI messages size (bytes):
  total size                        14.370317E+12
  min size                           0.000000E+00
  max size                          19.694088E+06
  average size                       3.382002E+06
 MPI breakdown and total messages size (bytes):
             size <=      128               43032                        0
       128 < size <=     8192                   0                        0
      8192 < size <=    32768                   0                        0
     32768 < size <=   131072                3912                267048768
    131072 < size <=  4194304             3618864            8317999726992
   4194304 < size <= 16777216              396432            2378129537304
  16777216 < size                          186816            3675654212832
 -------------------------------------------------------------------------------
 -                                                                             -
 -                      DBCSR MESSAGE PASSING PERFORMANCE                      -
 -                                                                             -
 -------------------------------------------------------------------------------
 ROUTINE             CALLS      AVE VOLUME [Bytes]
 MP_Group             6766
 MP_Bcast              191                     12.
 MP_Allreduce       218540                     36.
 MP_Alltoall        230133                 843159.
 MP_Wait           2124528
 MP_ISend           706872                1324227.
 MP_IRecv           706872                1310674.
 MP_Memory         1715216
 -------------------------------------------------------------------------------

 MEMORY| Estimated peak process memory [MiB]                                2109

 -------------------------------------------------------------------------------
 ----                             MULTIGRID INFO                            ----
 -------------------------------------------------------------------------------
 count for grid        1:        1657680          cutoff [a.u.]          180.00
 count for grid        2:         393520          cutoff [a.u.]           60.00
 count for grid        3:         224320          cutoff [a.u.]           20.00
 count for grid        4:          22240          cutoff [a.u.]            6.67
 count for grid        5:            640          cutoff [a.u.]            2.22
 total gridlevel count  :        2298400

 -------------------------------------------------------------------------------
 -                                                                             -
 -                         MESSAGE PASSING PERFORMANCE                         -
 -                                                                             -
 -------------------------------------------------------------------------------

 ROUTINE             CALLS      AVE VOLUME [Bytes]
 MP_Group                6
 MP_Bcast             1235                6812428.
 MP_Allreduce           91                  18149.
 MP_Sync                 5
 -------------------------------------------------------------------------------


 -------------------------------------------------------------------------------
 -                                                                             -
 -                           R E F E R E N C E S                               -
 -                                                                             -
 -------------------------------------------------------------------------------
 
 CP2K version 7.1, the CP2K developers group (2019).
 CP2K is freely available from https://www.cp2k.org/ .

 Schuett, Ole; Messmer, Peter; Hutter, Juerg; VandeVondele, Joost. 
 Electronic Structure Calculations on Graphics Processing Units, John
 Wiley & Sons, Ltd, 173-190 (2016). 
 GPU-Accelerated Sparse Matrix-Matrix Multiplication for
 Linear Scaling Density Functional Theory.
 https://dx.doi.org/10.1002/9781118670712.ch8

 Borstnik, U; VandeVondele, J; Weber, V; Hutter, J. 
 PARALLEL COMPUTING, 40 (5-6), 47-58 (2014). 
 Sparse matrix multiplication: The distributed block-compressed sparse
 row library.
 https://dx.doi.org/10.1016/j.parco.2014.03.012

 Hutter, J; Iannuzzi, M; Schiffmann, F; VandeVondele, J. 
 WIREs Comput Mol Sci., 4 (1), 15-25 (2014). 
 CP2K: atomistic simulations of condensed matter systems.
 https://dx.doi.org/10.1002/wcms.1159

 Grimme, S; Ehrlich, S; Goerigk, L. 
 JOURNAL OF COMPUTATIONAL CHEMISTRY, 32, 1456 (2011). 
 Effect of the damping function in dispersion corrected density functional theory.
 https://dx.doi.org/10.1002/jcc.21759

 Grimme, S; Antony, J; Ehrlich, S; Krieg, H. 
 JOURNAL OF CHEMICAL PHYSICS, 132 (15), 154104 (2010). 
 A consistent and accurate ab initio parametrization of density
 functional dispersion correction (DFT-D) for the 94 elements H-Pu.
 https://dx.doi.org/10.1063/1.3382344

 VandeVondele, J; Hutter, J. 
 JOURNAL OF CHEMICAL PHYSICS, 127 (11), 114105 (2007). 
 Gaussian basis sets for accurate calculations on molecular systems in
 gas and condensed phases.
 https://dx.doi.org/10.1063/1.2770708

 Krack, M. 
 THEORETICAL CHEMISTRY ACCOUNTS, 114 (1-3), 145-152 (2005). 
 Pseudopotentials for H to Kr optimized for gradient-corrected
 exchange-correlation functionals.
 https://dx.doi.org/10.1007/s00214-005-0655-y

 VandeVondele, J; Krack, M; Mohamed, F; Parrinello, M; Chassaing, T;
 Hutter, J. COMPUTER PHYSICS COMMUNICATIONS, 167 (2), 103-128 (2005). 
 QUICKSTEP: Fast and accurate density functional calculations using a
 mixed Gaussian and plane waves approach.
 https://dx.doi.org/10.1016/j.cpc.2004.12.014

 Frigo, M; Johnson, SG. 
 PROCEEDINGS OF THE IEEE, 93 (2), 216-231 (2005). 
 The design and implementation of FFTW3.
 https://dx.doi.org/10.1109/JPROC.2004.840301

 Kolafa, J. 
 JOURNAL OF COMPUTATIONAL CHEMISTRY, 25 (3), 335-342 (2004). 
 Time-reversible always stable predictor-corrector method for molecular dynamics of polarizable molecules.
 https://dx.doi.org/10.1002/jcc.10385

 VandeVondele, J; Hutter, J. 
 JOURNAL OF CHEMICAL PHYSICS, 118 (10), 4365-4369 (2003). 
 An efficient orbital transformation method for electronic structure
 calculations.
 https://dx.doi.org/10.1063/1.1543154

 Hartwigsen, C; Goedecker, S; Hutter, J. 
 PHYSICAL REVIEW B, 58 (7), 3641-3662 (1998). 
 Relativistic separable dual-space Gaussian pseudopotentials from H to Rn.
 https://dx.doi.org/10.1103/PhysRevB.58.3641

 Lippert, G; Hutter, J; Parrinello, M. 
 MOLECULAR PHYSICS, 92 (3), 477-487 (1997). 
 A hybrid Gaussian and plane wave density functional scheme.
 https://dx.doi.org/10.1080/002689797170220

 Perdew, JP; Burke, K; Ernzerhof, M. 
 PHYSICAL REVIEW LETTERS, 77 (18), 3865-3868 (1996). 
 Generalized gradient approximation made simple.
 https://dx.doi.org/10.1103/PhysRevLett.77.3865

 Goedecker, S; Teter, M; Hutter, J. 
 PHYSICAL REVIEW B, 54 (3), 1703-1710 (1996). 
 Separable dual-space Gaussian pseudopotentials.
 https://dx.doi.org/10.1103/PhysRevB.54.1703


 -------------------------------------------------------------------------------
 -                                                                             -
 -                                T I M I N G                                  -
 -                                                                             -
 -------------------------------------------------------------------------------
 SUBROUTINE                       CALLS  ASD         SELF TIME        TOTAL TIME
                                MAXIMUM       AVERAGE  MAXIMUM  AVERAGE  MAXIMUM
 CP2K                                 1  1.0     0.01     0.01 51971.04 51971.13
 vb_anal                              1  2.0 51967.45 51967.64 51969.29 51969.38
 -------------------------------------------------------------------------------

 The number of warnings for this run is : 0
 
 -------------------------------------------------------------------------------
  **** **** ******  **  PROGRAM ENDED AT                 2021-11-20 06:13:36.007
 ***** ** ***  *** **   PROGRAM RAN ON             node0383.palmetto.clemson.edu
 **    ****   ******    PROGRAM RAN BY                                   svicchi
 ***** **    ** ** **   PROGRAM PROCESS ID                                196113
  **** **  *******  **  PROGRAM STOPPED IN  /scratch2/svicchi/CP2K-4048759.pbs02
