 DBCSR| CPU Multiplication driver                                           XSMM
 DBCSR| Multrec recursion limit                                              512
 DBCSR| Multiplication stack size                                           1000
 DBCSR| Maximum elements for images                                    UNLIMITED
 DBCSR| Multiplicative factor virtual images                                   1
 DBCSR| Use multiplication densification                                       T
 DBCSR| Multiplication size stacks                                             3
 DBCSR| Use memory pool for CPU allocation                                     F
 DBCSR| Number of 3D layers                                               SINGLE
 DBCSR| Use MPI memory allocation                                              F
 DBCSR| Use RMA algorithm                                                      F
 DBCSR| Use Communication thread                                               T
 DBCSR| Communication thread load                                             87
 DBCSR| MPI: My node id                                                        0
 DBCSR| MPI: Number of nodes                                                  16
 DBCSR| OMP: Current number of threads                                         1
 DBCSR| OMP: Max number of threads                                             1
 DBCSR| Split modifier for TAS multiplication algorithm                  1.0E+00


  **** **** ******  **  PROGRAM STARTED AT               2022-12-08 12:30:36.084
 ***** ** ***  *** **   PROGRAM STARTED ON         node0587.palmetto.clemson.edu
 **    ****   ******    PROGRAM STARTED BY                               svicchi
 ***** **    ** ** **   PROGRAM PROCESS ID                               3278268
  **** **  *******  **  PROGRAM STARTED IN   /scratch1/svicchi/CP2K-367300.pbs02

 CP2K| version string:                                          CP2K version 9.1
 CP2K| source code revision number:                                  git:d8d7100
 CP2K| cp2kflags: omp libint fftw3 libxc parallel mpi3 scalapack xsmm           
 CP2K| is freely available from                            https://www.cp2k.org/
 CP2K| Program compiled at                          Mon Aug  8 12:17:03 EDT 2022
 CP2K| Program compiled on                         node0352.palmetto.clemson.edu
 CP2K| Program compiled for                           linux-rocky8-ivybridge-gcc
 CP2K| Data directory path    /software/spackages/linux-rocky8-ivybridge/gcc-9.5
 CP2K| Input file name                                            orange-SPE.inp

 GLOBAL| Force Environment number                                              1
 GLOBAL| Basis set file name                                          BASIS_file
 GLOBAL| Potential file name                                     POTENTIALS_file
 GLOBAL| MM Potential file name                                     MM_POTENTIAL
 GLOBAL| Coordinate file name                                         orange.xyz
 GLOBAL| Method name                                                        CP2K
 GLOBAL| Project name                                            info-orange-SPE
 GLOBAL| Run type                                                         ENERGY
 GLOBAL| FFT library                                                       FFTW3
 GLOBAL| Diagonalization library                                       ScaLAPACK
 GLOBAL| Orthonormality check for eigenvectors                          DISABLED
 GLOBAL| Matrix multiplication library                                 ScaLAPACK
 GLOBAL| All-to-all communication in single precision                          F
 GLOBAL| FFTs using library dependent lengths                                  F
 GLOBAL| Grid backend                                                       AUTO
 GLOBAL| Global print level                                               MEDIUM
 GLOBAL| MPI I/O enabled                                                       T
 GLOBAL| Total number of message passing processes                            16
 GLOBAL| Number of threads for this process                                    1
 GLOBAL| This output is from process                                           0
 GLOBAL| Stack size for threads created by OpenMP (OMP_STACKSIZE)        default
 GLOBAL| CPU model name                Intel(R) Xeon(R) CPU E5-2650 v2 @ 2.60GHz
 GLOBAL| CPUID                                                              1001

 MEMORY| system memory details [Kb]
 MEMORY|                        rank 0           min           max       average
 MEMORY| MemTotal            263811688     263811688     263811688     263811688
 MEMORY| MemFree             251661780     251661780     251661780     251661780
 MEMORY| Buffers                  2064          2064          2064          2064
 MEMORY| Cached                6494432       6494432       6494432       6494432
 MEMORY| Slab                   918652        918652        918652        918652
 MEMORY| SReclaimable           527864        527864        527864        527864
 MEMORY| MemLikelyFree       258686140     258686140     258686140     258686140


 *** Fundamental physical constants (SI units) ***

 *** Literature: B. J. Mohr and B. N. Taylor,
 ***             CODATA recommended values of the fundamental physical
 ***             constants: 2006, Web Version 5.1
 ***             http://physics.nist.gov/constants

 Speed of light in vacuum [m/s]                             2.99792458000000E+08
 Magnetic constant or permeability of vacuum [N/A**2]       1.25663706143592E-06
 Electric constant or permittivity of vacuum [F/m]          8.85418781762039E-12
 Planck constant (h) [J*s]                                  6.62606896000000E-34
 Planck constant (h-bar) [J*s]                              1.05457162825177E-34
 Elementary charge [C]                                      1.60217648700000E-19
 Electron mass [kg]                                         9.10938215000000E-31
 Electron g factor [ ]                                     -2.00231930436220E+00
 Proton mass [kg]                                           1.67262163700000E-27
 Fine-structure constant                                    7.29735253760000E-03
 Rydberg constant [1/m]                                     1.09737315685270E+07
 Avogadro constant [1/mol]                                  6.02214179000000E+23
 Boltzmann constant [J/K]                                   1.38065040000000E-23
 Atomic mass unit [kg]                                      1.66053878200000E-27
 Bohr radius [m]                                            5.29177208590000E-11

 *** Conversion factors ***

 [u] -> [a.u.]                                              1.82288848426455E+03
 [Angstrom] -> [Bohr] = [a.u.]                              1.88972613288564E+00
 [a.u.] = [Bohr] -> [Angstrom]                              5.29177208590000E-01
 [a.u.] -> [s]                                              2.41888432650478E-17
 [a.u.] -> [fs]                                             2.41888432650478E-02
 [a.u.] -> [J]                                              4.35974393937059E-18
 [a.u.] -> [N]                                              8.23872205491840E-08
 [a.u.] -> [K]                                              3.15774647902944E+05
 [a.u.] -> [kJ/mol]                                         2.62549961709828E+03
 [a.u.] -> [kcal/mol]                                       6.27509468713739E+02
 [a.u.] -> [Pa]                                             2.94210107994716E+13
 [a.u.] -> [bar]                                            2.94210107994716E+08
 [a.u.] -> [atm]                                            2.90362800883016E+08
 [a.u.] -> [eV]                                             2.72113838565563E+01
 [a.u.] -> [Hz]                                             6.57968392072181E+15
 [a.u.] -> [1/cm] (wave numbers)                            2.19474631370540E+05
 [a.u./Bohr**2] -> [1/cm]                                   5.14048714338585E+03
 

 CELL_TOP| Volume [angstrom^3]:                                     22838.217204
 CELL_TOP| Vector a [angstrom    40.611     0.000     0.000   |a| =    40.611054
 CELL_TOP| Vector b [angstrom    20.305    35.170     0.000   |b| =    40.611054
 CELL_TOP| Vector c [angstrom     0.000     0.000    15.990   |c| =    15.989791
 CELL_TOP| Angle (b,c), alpha [degree]:                                90.000000
 CELL_TOP| Angle (a,c), beta  [degree]:                                90.000000
 CELL_TOP| Angle (a,b), gamma [degree]:                                60.000057
 CELL_TOP| Requested initial symmetry:                       MONOCLINIC_GAMMA_AB
 CELL_TOP| Numerically orthorhombic:                                          NO

 CELL| Volume [angstrom^3]:                                         22838.217204
 CELL| Vector a [angstrom]:      40.611     0.000     0.000   |a| =    40.611054
 CELL| Vector b [angstrom]:      20.305    35.170     0.000   |b| =    40.611054
 CELL| Vector c [angstrom]:       0.000     0.000    15.990   |c| =    15.989791
 CELL| Angle (b,c), alpha [degree]:                                    90.000000
 CELL| Angle (a,c), beta  [degree]:                                    90.000000
 CELL| Angle (a,b), gamma [degree]:                                    60.000057
 CELL| Requested initial symmetry:                           MONOCLINIC_GAMMA_AB
 CELL| Numerically orthorhombic:                                              NO

 CELL_REF| Volume [angstrom^3]:                                     22838.217204
 CELL_REF| Vector a [angstrom    40.611     0.000     0.000   |a| =    40.611054
 CELL_REF| Vector b [angstrom    20.305    35.170     0.000   |b| =    40.611054
 CELL_REF| Vector c [angstrom     0.000     0.000    15.990   |c| =    15.989791
 CELL_REF| Angle (b,c), alpha [degree]:                                90.000000
 CELL_REF| Angle (a,c), beta  [degree]:                                90.000000
 CELL_REF| Angle (a,b), gamma [degree]:                                60.000057
 CELL_REF| Requested initial symmetry:                       MONOCLINIC_GAMMA_AB
 CELL_REF| Numerically orthorhombic:                                          NO

 *******************************************************************************
 *******************************************************************************
 **                                                                           **
 **     #####                         ##              ##                      **
 **    ##   ##            ##          ##              ##                      **
 **   ##     ##                       ##            ######                    **
 **   ##     ##  ##   ##  ##   #####  ##  ##   ####   ##    #####    #####    **
 **   ##     ##  ##   ##  ##  ##      ## ##   ##      ##   ##   ##  ##   ##   **
 **   ##  ## ##  ##   ##  ##  ##      ####     ###    ##   ######   ######    **
 **    ##  ###   ##   ##  ##  ##      ## ##      ##   ##   ##       ##        **
 **     #######   #####   ##   #####  ##  ##  ####    ##    #####   ##        **
 **           ##                                                    ##        **
 **                                                                           **
 **                                                ... make the atoms dance   **
 **                                                                           **
 **            Copyright (C) by CP2K developers group (2000-2021)             **
 **                      J. Chem. Phys. 152, 194103 (2020)                    **
 **                                                                           **
 *******************************************************************************

 DFT| Spin unrestricted (spin-polarized) Kohn-Sham calculation               UKS
 DFT| Multiplicity                                                             7
 DFT| Number of spin states                                                    2
 DFT| Charge                                                                   0
 DFT| Self-interaction correction (SIC)                                       NO
 DFT| Cutoffs: density                                              1.000000E-10
 DFT|          gradient                                             1.000000E-10
 DFT|          tau                                                  1.000000E-10
 DFT|          cutoff_smoothing_range                               0.000000E+00
 DFT| XC density smoothing                                                  NONE
 DFT| XC derivatives                                                          PW
 FUNCTIONAL| ROUTINE=NEW
 FUNCTIONAL| PBE:
 FUNCTIONAL| J.P.Perdew, K.Burke, M.Ernzerhof, Phys. Rev. Letter, vol. 77, n 18,
 FUNCTIONAL|  pp. 3865-3868, (1996){spin polarized}                             
 vdW POTENTIAL|                                                   Pair Potential
 vdW POTENTIAL|          DFT-D3 (Version 3.1)
 vdW POTENTIAL|          Potential Form: S. Grimme et al, JCP 132: 154104 (2010)
 vdW POTENTIAL|          BJ Damping: S. Grimme et al, JCC 32: 1456 (2011)
 vdW POTENTIAL|          Cutoff Radius [Bohr]:                             20.00
 vdW POTENTIAL|          s6 Scaling Factor:                               1.0000
 vdW POTENTIAL|          a1 Damping Factor:                               0.4289
 vdW POTENTIAL|          s8 Scaling Factor:                               0.7875
 vdW POTENTIAL|          a2 Damping Factor:                               4.4407
 vdW POTENTIAL|          Cutoff for CN calculation:                   0.1000E-05

 QS| Method:                                                                 GPW
 QS| Density plane wave grid type                        NON-SPHERICAL FULLSPACE
 QS| Number of grid levels:                                                    5
 QS| Density cutoff [a.u.]:                                                180.0
 QS| Multi grid cutoff [a.u.]: 1) grid level                               180.0
 QS|                           2) grid level                                60.0
 QS|                           3) grid level                                20.0
 QS|                           4) grid level                                 6.7
 QS|                           5) grid level                                 2.2
 QS| Grid level progression factor:                                          3.0
 QS| Relative density cutoff [a.u.]:                                        40.0
 QS| Interaction thresholds: eps_pgf_orb:                                1.0E-05
 QS|                         eps_filter_matrix:                          0.0E+00
 QS|                         eps_core_charge:                            1.0E-12
 QS|                         eps_rho_gspace:                             1.0E-10
 QS|                         eps_rho_rspace:                             1.0E-10
 QS|                         eps_gvg_rspace:                             1.0E-05
 QS|                         eps_ppl:                                    1.0E-02
 QS|                         eps_ppnl:                                   1.0E-07


 ATOMIC KIND INFORMATION

  1. Atomic kind: C                                     Number of atoms:     264

     Orbital Basis Set                                     DZVP-MOLOPT-SR-GTH-q4

       Number of orbital shell sets:                                           1
       Number of orbital shells:                                               5
       Number of primitive Cartesian functions:                                5
       Number of Cartesian basis functions:                                   14
       Number of spherical basis functions:                                   13
       Norm type:                                                              2

       Normalised Cartesian orbitals:

                        Set   Shell   Orbital            Exponent    Coefficient

                          1       1    2s                5.605331       0.322515
                                                         2.113016       0.213043
                                                         0.769911      -0.209686
                                                         0.348157      -0.219794
                                                         0.128212      -0.022789

                          1       2    3s                5.605331       0.552234
                                                         2.113016       0.082072
                                                         0.769911       0.007843
                                                         0.348157       0.136893
                                                         0.128212       0.074283

                          1       3    3px               5.605331      -0.703879
                                                         2.113016      -0.642521
                                                         0.769911      -0.374851
                                                         0.348157      -0.139743
                                                         0.128212      -0.027849
                          1       3    3py               5.605331      -0.703879
                                                         2.113016      -0.642521
                                                         0.769911      -0.374851
                                                         0.348157      -0.139743
                                                         0.128212      -0.027849
                          1       3    3pz               5.605331      -0.703879
                                                         2.113016      -0.642521
                                                         0.769911      -0.374851
                                                         0.348157      -0.139743
                                                         0.128212      -0.027849

                          1       4    4px               5.605331      -0.480376
                                                         2.113016      -0.552894
                                                         0.769911      -0.316145
                                                         0.348157       0.210505
                                                         0.128212       0.076095
                          1       4    4py               5.605331      -0.480376
                                                         2.113016      -0.552894
                                                         0.769911      -0.316145
                                                         0.348157       0.210505
                                                         0.128212       0.076095
                          1       4    4pz               5.605331      -0.480376
                                                         2.113016      -0.552894
                                                         0.769911      -0.316145
                                                         0.348157       0.210505
                                                         0.128212       0.076095

                          1       5    4dx2              5.605331       0.640026
                                                         2.113016       0.274300
                                                         0.769911       0.446711
                                                         0.348157       0.028674
                                                         0.128212       0.029790
                          1       5    4dxy              5.605331       1.108557
                                                         2.113016       0.475102
                                                         0.769911       0.773726
                                                         0.348157       0.049666
                                                         0.128212       0.051599
                          1       5    4dxz              5.605331       1.108557
                                                         2.113016       0.475102
                                                         0.769911       0.773726
                                                         0.348157       0.049666
                                                         0.128212       0.051599
                          1       5    4dy2              5.605331       0.640026
                                                         2.113016       0.274300
                                                         0.769911       0.446711
                                                         0.348157       0.028674
                                                         0.128212       0.029790
                          1       5    4dyz              5.605331       1.108557
                                                         2.113016       0.475102
                                                         0.769911       0.773726
                                                         0.348157       0.049666
                                                         0.128212       0.051599
                          1       5    4dz2              5.605331       0.640026
                                                         2.113016       0.274300
                                                         0.769911       0.446711
                                                         0.348157       0.028674
                                                         0.128212       0.029790

       Atomic covalent radius [Angstrom]:                                  0.770

       Atomic van der Waals radius [Angstrom]:                             1.700

     GTH Potential information for                                    GTH-PBE-q4

       Description:                       Goedecker-Teter-Hutter pseudopotential
                                           Goedecker et al., PRB 54, 1703 (1996)
                                          Hartwigsen et al., PRB 58, 3641 (1998)
                                                      Krack, TCA 114, 145 (2005)

       Gaussian exponent of the core charge distribution:               4.364419
       Electronic configuration (s p d ...):                               2   2

       Parameters of the local part of the GTH pseudopotential:

                          rloc        C1          C2          C3          C4
                        0.338471   -8.803674    1.339211

       Parameters of the non-local part of the GTH pseudopotential:

                   l      r(l)      h(i,j,l)

                   0    0.302576    9.622487
                   1    0.291507

  2. Atomic kind: H                                     Number of atoms:     186

     Orbital Basis Set                                     DZVP-MOLOPT-SR-GTH-q1

       Number of orbital shell sets:                                           1
       Number of orbital shells:                                               3
       Number of primitive Cartesian functions:                                5
       Number of Cartesian basis functions:                                    5
       Number of spherical basis functions:                                    5
       Norm type:                                                              2

       Normalised Cartesian orbitals:

                        Set   Shell   Orbital            Exponent    Coefficient

                          1       1    2s               10.068468      -0.133023
                                                         2.680223      -0.177618
                                                         0.791502      -0.258419
                                                         0.239116      -0.107525
                                                         0.082193      -0.014019

                          1       2    3s               10.068468       0.344673
                                                         2.680223       1.819821
                                                         0.791502      -0.999069
                                                         0.239116       0.017430
                                                         0.082193       0.082660

                          1       3    3px              10.068468       0.155326
                                                         2.680223       0.367157
                                                         0.791502       0.311480
                                                         0.239116       0.080105
                                                         0.082193       0.033440
                          1       3    3py              10.068468       0.155326
                                                         2.680223       0.367157
                                                         0.791502       0.311480
                                                         0.239116       0.080105
                                                         0.082193       0.033440
                          1       3    3pz              10.068468       0.155326
                                                         2.680223       0.367157
                                                         0.791502       0.311480
                                                         0.239116       0.080105
                                                         0.082193       0.033440

       Atomic covalent radius [Angstrom]:                                  0.320

       Atomic van der Waals radius [Angstrom]:                             1.090

     GTH Potential information for                                    GTH-PBE-q1

       Description:                       Goedecker-Teter-Hutter pseudopotential
                                           Goedecker et al., PRB 54, 1703 (1996)
                                          Hartwigsen et al., PRB 58, 3641 (1998)
                                                      Krack, TCA 114, 145 (2005)

       Gaussian exponent of the core charge distribution:              12.500000
       Electronic configuration (s p d ...):                                   1

       Parameters of the local part of the GTH pseudopotential:

                          rloc        C1          C2          C3          C4
                        0.200000   -4.178900    0.724463

  3. Atomic kind: Ni                                    Number of atoms:       4

     Orbital Basis Set                                    DZVP-MOLOPT-SR-GTH-q18

       Number of orbital shell sets:                                           1
       Number of orbital shells:                                               8
       Number of primitive Cartesian functions:                                6
       Number of Cartesian basis functions:                                   31
       Number of spherical basis functions:                                   26
       Norm type:                                                              2

       Normalised Cartesian orbitals:

                        Set   Shell   Orbital            Exponent    Coefficient

                          1       1    2s               10.077428      -0.684558
                                                         5.847736      -0.844524
                                                         2.494033       1.088856
                                                         0.988355       0.395503
                                                         0.344978       0.010224
                                                         0.099466      -0.003250

                          1       2    3s               10.077428       0.096747
                                                         5.847736       0.162504
                                                         2.494033      -0.297192
                                                         0.988355      -0.319752
                                                         0.344978       0.088318
                                                         0.099466       0.118587

                          1       3    4s               10.077428       0.036437
                                                         5.847736      -0.381480
                                                         2.494033       0.003759
                                                         0.988355      -1.048256
                                                         0.344978       0.855825
                                                         0.099466      -0.176350

                          1       4    3px              10.077428      -3.133913
                                                         5.847736       3.027656
                                                         2.494033       2.353227
                                                         0.988355       0.554184
                                                         0.344978       0.019462
                                                         0.099466      -0.000291
                          1       4    3py              10.077428      -3.133913
                                                         5.847736       3.027656
                                                         2.494033       2.353227
                                                         0.988355       0.554184
                                                         0.344978       0.019462
                                                         0.099466      -0.000291
                          1       4    3pz              10.077428      -3.133913
                                                         5.847736       3.027656
                                                         2.494033       2.353227
                                                         0.988355       0.554184
                                                         0.344978       0.019462
                                                         0.099466      -0.000291

                          1       5    4px              10.077428      -0.112729
                                                         5.847736      -0.114008
                                                         2.494033      -0.347303
                                                         0.988355      -0.110323
                                                         0.344978       0.154096
                                                         0.099466       0.058386
                          1       5    4py              10.077428      -0.112729
                                                         5.847736      -0.114008
                                                         2.494033      -0.347303
                                                         0.988355      -0.110323
                                                         0.344978       0.154096
                                                         0.099466       0.058386
                          1       5    4pz              10.077428      -0.112729
                                                         5.847736      -0.114008
                                                         2.494033      -0.347303
                                                         0.988355      -0.110323
                                                         0.344978       0.154096
                                                         0.099466       0.058386

                          1       6    4dx2             10.077428       8.232726
                                                         5.847736       9.105758
                                                         2.494033       2.849835
                                                         0.988355       0.554319
                                                         0.344978       0.067245
                                                         0.099466       0.001940
                          1       6    4dxy             10.077428      14.259500
                                                         5.847736      15.771636
                                                         2.494033       4.936060
                                                         0.988355       0.960109
                                                         0.344978       0.116472
                                                         0.099466       0.003360
                          1       6    4dxz             10.077428      14.259500
                                                         5.847736      15.771636
                                                         2.494033       4.936060
                                                         0.988355       0.960109
                                                         0.344978       0.116472
                                                         0.099466       0.003360
                          1       6    4dy2             10.077428       8.232726
                                                         5.847736       9.105758
                                                         2.494033       2.849835
                                                         0.988355       0.554319
                                                         0.344978       0.067245
                                                         0.099466       0.001940
                          1       6    4dyz             10.077428      14.259500
                                                         5.847736      15.771636
                                                         2.494033       4.936060
                                                         0.988355       0.960109
                                                         0.344978       0.116472
                                                         0.099466       0.003360
                          1       6    4dz2             10.077428       8.232726
                                                         5.847736       9.105758
                                                         2.494033       2.849835
                                                         0.988355       0.554319
                                                         0.344978       0.067245
                                                         0.099466       0.001940

                          1       7    5dx2             10.077428      -2.715373
                                                         5.847736      -4.020640
                                                         2.494033      -1.397569
                                                         0.988355      -0.076143
                                                         0.344978       0.033435
                                                         0.099466       0.026032
                          1       7    5dxy             10.077428      -4.703164
                                                         5.847736      -6.963952
                                                         2.494033      -2.420661
                                                         0.988355      -0.131883
                                                         0.344978       0.057911
                                                         0.099466       0.045088
                          1       7    5dxz             10.077428      -4.703164
                                                         5.847736      -6.963952
                                                         2.494033      -2.420661
                                                         0.988355      -0.131883
                                                         0.344978       0.057911
                                                         0.099466       0.045088
                          1       7    5dy2             10.077428      -2.715373
                                                         5.847736      -4.020640
                                                         2.494033      -1.397569
                                                         0.988355      -0.076143
                                                         0.344978       0.033435
                                                         0.099466       0.026032
                          1       7    5dyz             10.077428      -4.703164
                                                         5.847736      -6.963952
                                                         2.494033      -2.420661
                                                         0.988355      -0.131883
                                                         0.344978       0.057911
                                                         0.099466       0.045088
                          1       7    5dz2             10.077428      -2.715373
                                                         5.847736      -4.020640
                                                         2.494033      -1.397569
                                                         0.988355      -0.076143
                                                         0.344978       0.033435
                                                         0.099466       0.026032

                          1       8    5fx3             10.077428      -0.467694
                                                         5.847736       0.618100
                                                         2.494033       0.066069
                                                         0.988355       0.262898
                                                         0.344978       0.004720
                                                         0.099466       0.007748
                          1       8    5fx2y            10.077428      -1.045795
                                                         5.847736       1.382114
                                                         2.494033       0.147734
                                                         0.988355       0.587859
                                                         0.344978       0.010555
                                                         0.099466       0.017325
                          1       8    5fx2z            10.077428      -1.045795
                                                         5.847736       1.382114
                                                         2.494033       0.147734
                                                         0.988355       0.587859
                                                         0.344978       0.010555
                                                         0.099466       0.017325
                          1       8    5fxy2            10.077428      -1.045795
                                                         5.847736       1.382114
                                                         2.494033       0.147734
                                                         0.988355       0.587859
                                                         0.344978       0.010555
                                                         0.099466       0.017325
                          1       8    5fxyz            10.077428      -1.811371
                                                         5.847736       2.393892
                                                         2.494033       0.255883
                                                         0.988355       1.018201
                                                         0.344978       0.018282
                                                         0.099466       0.030008
                          1       8    5fxz2            10.077428      -1.045795
                                                         5.847736       1.382114
                                                         2.494033       0.147734
                                                         0.988355       0.587859
                                                         0.344978       0.010555
                                                         0.099466       0.017325
                          1       8    5fy3             10.077428      -0.467694
                                                         5.847736       0.618100
                                                         2.494033       0.066069
                                                         0.988355       0.262898
                                                         0.344978       0.004720
                                                         0.099466       0.007748
                          1       8    5fy2z            10.077428      -1.045795
                                                         5.847736       1.382114
                                                         2.494033       0.147734
                                                         0.988355       0.587859
                                                         0.344978       0.010555
                                                         0.099466       0.017325
                          1       8    5fyz2            10.077428      -1.045795
                                                         5.847736       1.382114
                                                         2.494033       0.147734
                                                         0.988355       0.587859
                                                         0.344978       0.010555
                                                         0.099466       0.017325
                          1       8    5fz3             10.077428      -0.467694
                                                         5.847736       0.618100
                                                         2.494033       0.066069
                                                         0.988355       0.262898
                                                         0.344978       0.004720
                                                         0.099466       0.007748

       Atomic covalent radius [Angstrom]:                                  1.150

       Atomic van der Waals radius [Angstrom]:                             1.630

     GTH Potential information for                                   GTH-PBE-q18

       Description:                       Goedecker-Teter-Hutter pseudopotential
                                           Goedecker et al., PRB 54, 1703 (1996)
                                          Hartwigsen et al., PRB 58, 3641 (1998)
                                                      Krack, TCA 114, 145 (2005)

       Gaussian exponent of the core charge distribution:               4.081633
       Electronic configuration (s p d ...):                           4   6   8

       Parameters of the local part of the GTH pseudopotential:

                          rloc        C1          C2          C3          C4
                        0.350000    2.102166    0.648484

       Parameters of the non-local part of the GTH pseudopotential:

                   l      r(l)      h(i,j,l)

                   0    0.261295    0.622658    9.970227
                                    9.970227  -12.871507
                   1    0.224253  -11.142708   12.429566
                                   12.429566  -14.706861
                   2    0.215348  -12.628146

  4. Atomic kind: O                                     Number of atoms:     102

     Orbital Basis Set                                     DZVP-MOLOPT-SR-GTH-q6

       Number of orbital shell sets:                                           1
       Number of orbital shells:                                               5
       Number of primitive Cartesian functions:                                5
       Number of Cartesian basis functions:                                   14
       Number of spherical basis functions:                                   13
       Norm type:                                                              2

       Normalised Cartesian orbitals:

                        Set   Shell   Orbital            Exponent    Coefficient

                          1       1    2s               10.389228       0.396646
                                                         3.849621       0.208811
                                                         1.388401      -0.301641
                                                         0.496955      -0.274061
                                                         0.162492      -0.033677

                          1       2    3s               10.389228       0.303673
                                                         3.849621       0.240943
                                                         1.388401      -0.313066
                                                         0.496955      -0.043055
                                                         0.162492       0.213991

                          1       3    3px              10.389228      -1.530415
                                                         3.849621      -1.371928
                                                         1.388401      -0.761951
                                                         0.496955      -0.253695
                                                         0.162492      -0.035541
                          1       3    3py              10.389228      -1.530415
                                                         3.849621      -1.371928
                                                         1.388401      -0.761951
                                                         0.496955      -0.253695
                                                         0.162492      -0.035541
                          1       3    3pz              10.389228      -1.530415
                                                         3.849621      -1.371928
                                                         1.388401      -0.761951
                                                         0.496955      -0.253695
                                                         0.162492      -0.035541

                          1       4    4px              10.389228      -0.565392
                                                         3.849621      -0.038231
                                                         1.388401      -0.382373
                                                         0.496955       0.179070
                                                         0.162492       0.122714
                          1       4    4py              10.389228      -0.565392
                                                         3.849621      -0.038231
                                                         1.388401      -0.382373
                                                         0.496955       0.179070
                                                         0.162492       0.122714
                          1       4    4pz              10.389228      -0.565392
                                                         3.849621      -0.038231
                                                         1.388401      -0.382373
                                                         0.496955       0.179070
                                                         0.162492       0.122714

                          1       5    4dx2             10.389228       1.867377
                                                         3.849621       0.670994
                                                         1.388401       1.353441
                                                         0.496955       0.273538
                                                         0.162492       0.006620
                          1       5    4dxy             10.389228       3.234392
                                                         3.849621       1.162195
                                                         1.388401       2.344229
                                                         0.496955       0.473781
                                                         0.162492       0.011466
                          1       5    4dxz             10.389228       3.234392
                                                         3.849621       1.162195
                                                         1.388401       2.344229
                                                         0.496955       0.473781
                                                         0.162492       0.011466
                          1       5    4dy2             10.389228       1.867377
                                                         3.849621       0.670994
                                                         1.388401       1.353441
                                                         0.496955       0.273538
                                                         0.162492       0.006620
                          1       5    4dyz             10.389228       3.234392
                                                         3.849621       1.162195
                                                         1.388401       2.344229
                                                         0.496955       0.473781
                                                         0.162492       0.011466
                          1       5    4dz2             10.389228       1.867377
                                                         3.849621       0.670994
                                                         1.388401       1.353441
                                                         0.496955       0.273538
                                                         0.162492       0.006620

       Atomic covalent radius [Angstrom]:                                  0.730

       Atomic van der Waals radius [Angstrom]:                             1.520

     GTH Potential information for                                    GTH-PBE-q6

       Description:                       Goedecker-Teter-Hutter pseudopotential
                                           Goedecker et al., PRB 54, 1703 (1996)
                                          Hartwigsen et al., PRB 58, 3641 (1998)
                                                      Krack, TCA 114, 145 (2005)

       Gaussian exponent of the core charge distribution:               8.360253
       Electronic configuration (s p d ...):                               2   4

       Parameters of the local part of the GTH pseudopotential:

                          rloc        C1          C2          C3          C4
                        0.244554  -16.667215    2.487311

       Parameters of the non-local part of the GTH pseudopotential:

                   l      r(l)      h(i,j,l)

                   0    0.220956   18.337458
                   1    0.211332

  5. Atomic kind: Zr                                    Number of atoms:      18

     Orbital Basis Set                                    DZVP-MOLOPT-SR-GTH-q12

       Number of orbital shell sets:                                           1
       Number of orbital shells:                                               8
       Number of primitive Cartesian functions:                                7
       Number of Cartesian basis functions:                                   31
       Number of spherical basis functions:                                   26
       Norm type:                                                              2

       Normalised Cartesian orbitals:

                        Set   Shell   Orbital            Exponent    Coefficient

                          1       1    2s                7.568386      -0.292925
                                                         2.940870       1.053802
                                                         1.478550      -0.194175
                                                         0.699653      -0.477593
                                                         0.314575      -0.092850
                                                         0.129869       0.000474
                                                         0.046851      -0.000485

                          1       2    3s                7.568386      -0.107602
                                                         2.940870       0.453694
                                                         1.478550      -0.133469
                                                         0.699653      -0.242646
                                                         0.314575      -0.112324
                                                         0.129869       0.079936
                                                         0.046851       0.057275

                          1       3    4s                7.568386      -0.039443
                                                         2.940870      -0.239516
                                                         1.478550       0.462939
                                                         0.699653       0.054202
                                                         0.314575       0.378792
                                                         0.129869      -0.467495
                                                         0.046851       0.135277

                          1       4    3px               7.568386      -0.367032
                                                         2.940870       1.199938
                                                         1.478550      -0.729727
                                                         0.699653      -0.527717
                                                         0.314575      -0.102074
                                                         0.129869      -0.002163
                                                         0.046851      -0.000016
                          1       4    3py               7.568386      -0.367032
                                                         2.940870       1.199938
                                                         1.478550      -0.729727
                                                         0.699653      -0.527717
                                                         0.314575      -0.102074
                                                         0.129869      -0.002163
                                                         0.046851      -0.000016
                          1       4    3pz               7.568386      -0.367032
                                                         2.940870       1.199938
                                                         1.478550      -0.729727
                                                         0.699653      -0.527717
                                                         0.314575      -0.102074
                                                         0.129869      -0.002163
                                                         0.046851      -0.000016

                          1       5    4px               7.568386      -0.041149
                                                         2.940870       0.296409
                                                         1.478550      -0.285807
                                                         0.699653      -0.254468
                                                         0.314575       0.008755
                                                         0.129869       0.053085
                                                         0.046851       0.019526
                          1       5    4py               7.568386      -0.041149
                                                         2.940870       0.296409
                                                         1.478550      -0.285807
                                                         0.699653      -0.254468
                                                         0.314575       0.008755
                                                         0.129869       0.053085
                                                         0.046851       0.019526
                          1       5    4pz               7.568386      -0.041149
                                                         2.940870       0.296409
                                                         1.478550      -0.285807
                                                         0.699653      -0.254468
                                                         0.314575       0.008755
                                                         0.129869       0.053085
                                                         0.046851       0.019526

                          1       6    4dx2              7.568386      -0.104612
                                                         2.940870      -0.141339
                                                         1.478550       0.540679
                                                         0.699653       0.284252
                                                         0.314575       0.094561
                                                         0.129869       0.012195
                                                         0.046851       0.000412
                          1       6    4dxy              7.568386      -0.181193
                                                         2.940870      -0.244806
                                                         1.478550       0.936483
                                                         0.699653       0.492339
                                                         0.314575       0.163785
                                                         0.129869       0.021122
                                                         0.046851       0.000713
                          1       6    4dxz              7.568386      -0.181193
                                                         2.940870      -0.244806
                                                         1.478550       0.936483
                                                         0.699653       0.492339
                                                         0.314575       0.163785
                                                         0.129869       0.021122
                                                         0.046851       0.000713
                          1       6    4dy2              7.568386      -0.104612
                                                         2.940870      -0.141339
                                                         1.478550       0.540679
                                                         0.699653       0.284252
                                                         0.314575       0.094561
                                                         0.129869       0.012195
                                                         0.046851       0.000412
                          1       6    4dyz              7.568386      -0.181193
                                                         2.940870      -0.244806
                                                         1.478550       0.936483
                                                         0.699653       0.492339
                                                         0.314575       0.163785
                                                         0.129869       0.021122
                                                         0.046851       0.000713
                          1       6    4dz2              7.568386      -0.104612
                                                         2.940870      -0.141339
                                                         1.478550       0.540679
                                                         0.699653       0.284252
                                                         0.314575       0.094561
                                                         0.129869       0.012195
                                                         0.046851       0.000412

                          1       7    5dx2              7.568386      -0.107600
                                                         2.940870       0.230973
                                                         1.478550      -0.200541
                                                         0.699653      -0.193347
                                                         0.314575       0.007888
                                                         0.129869       0.006706
                                                         0.046851       0.006900
                          1       7    5dxy              7.568386      -0.186369
                                                         2.940870       0.400056
                                                         1.478550      -0.347346
                                                         0.699653      -0.334887
                                                         0.314575       0.013663
                                                         0.129869       0.011615
                                                         0.046851       0.011951
                          1       7    5dxz              7.568386      -0.186369
                                                         2.940870       0.400056
                                                         1.478550      -0.347346
                                                         0.699653      -0.334887
                                                         0.314575       0.013663
                                                         0.129869       0.011615
                                                         0.046851       0.011951
                          1       7    5dy2              7.568386      -0.107600
                                                         2.940870       0.230973
                                                         1.478550      -0.200541
                                                         0.699653      -0.193347
                                                         0.314575       0.007888
                                                         0.129869       0.006706
                                                         0.046851       0.006900
                          1       7    5dyz              7.568386      -0.186369
                                                         2.940870       0.400056
                                                         1.478550      -0.347346
                                                         0.699653      -0.334887
                                                         0.314575       0.013663
                                                         0.129869       0.011615
                                                         0.046851       0.011951
                          1       7    5dz2              7.568386      -0.107600
                                                         2.940870       0.230973
                                                         1.478550      -0.200541
                                                         0.699653      -0.193347
                                                         0.314575       0.007888
                                                         0.129869       0.006706
                                                         0.046851       0.006900

                          1       8    5fx3              7.568386       0.371480
                                                         2.940870      -0.155968
                                                         1.478550      -0.211323
                                                         0.699653      -0.255968
                                                         0.314575      -0.046738
                                                         0.129869      -0.005674
                                                         0.046851       0.000171
                          1       8    5fx2y             7.568386       0.830655
                                                         2.940870      -0.348756
                                                         1.478550      -0.472533
                                                         0.699653      -0.572361
                                                         0.314575      -0.104510
                                                         0.129869      -0.012687
                                                         0.046851       0.000382
                          1       8    5fx2z             7.568386       0.830655
                                                         2.940870      -0.348756
                                                         1.478550      -0.472533
                                                         0.699653      -0.572361
                                                         0.314575      -0.104510
                                                         0.129869      -0.012687
                                                         0.046851       0.000382
                          1       8    5fxy2             7.568386       0.830655
                                                         2.940870      -0.348756
                                                         1.478550      -0.472533
                                                         0.699653      -0.572361
                                                         0.314575      -0.104510
                                                         0.129869      -0.012687
                                                         0.046851       0.000382
                          1       8    5fxyz             7.568386       1.438737
                                                         2.940870      -0.604063
                                                         1.478550      -0.818452
                                                         0.699653      -0.991359
                                                         0.314575      -0.181017
                                                         0.129869      -0.021975
                                                         0.046851       0.000662
                          1       8    5fxz2             7.568386       0.830655
                                                         2.940870      -0.348756
                                                         1.478550      -0.472533
                                                         0.699653      -0.572361
                                                         0.314575      -0.104510
                                                         0.129869      -0.012687
                                                         0.046851       0.000382
                          1       8    5fy3              7.568386       0.371480
                                                         2.940870      -0.155968
                                                         1.478550      -0.211323
                                                         0.699653      -0.255968
                                                         0.314575      -0.046738
                                                         0.129869      -0.005674
                                                         0.046851       0.000171
                          1       8    5fy2z             7.568386       0.830655
                                                         2.940870      -0.348756
                                                         1.478550      -0.472533
                                                         0.699653      -0.572361
                                                         0.314575      -0.104510
                                                         0.129869      -0.012687
                                                         0.046851       0.000382
                          1       8    5fyz2             7.568386       0.830655
                                                         2.940870      -0.348756
                                                         1.478550      -0.472533
                                                         0.699653      -0.572361
                                                         0.314575      -0.104510
                                                         0.129869      -0.012687
                                                         0.046851       0.000382
                          1       8    5fz3              7.568386       0.371480
                                                         2.940870      -0.155968
                                                         1.478550      -0.211323
                                                         0.699653      -0.255968
                                                         0.314575      -0.046738
                                                         0.129869      -0.005674
                                                         0.046851       0.000171

       Atomic covalent radius [Angstrom]:                                  1.450

       Atomic van der Waals radius [Angstrom]:                             1.920

     GTH Potential information for                                   GTH-PBE-q12

       Description:                       Goedecker-Teter-Hutter pseudopotential
                                           Goedecker et al., PRB 54, 1703 (1996)
                                          Hartwigsen et al., PRB 58, 3641 (1998)
                                                      Krack, TCA 114, 145 (2005)

       Gaussian exponent of the core charge distribution:               2.263468
       Electronic configuration (s p d ...):                           4   6   2

       Parameters of the local part of the GTH pseudopotential:

                          rloc        C1          C2          C3          C4
                        0.470000    7.796057   -1.893210

       Parameters of the non-local part of the GTH pseudopotential:

                   l      r(l)      h(i,j,l)

                   0    0.259829   23.380874   -8.571939
                                   -8.571939   11.066326
                   1    0.288969    8.592766   -5.377358
                                   -5.377358    6.362576
                   2    0.581245    0.027811    0.276862
                                    0.276862   -0.313932


 MOLECULE KIND INFORMATION


 All atoms are their own molecule, skipping detailed information


 TOTAL NUMBERS AND MAXIMUM NUMBERS

  Total number of            - Atomic kinds:                                   5
                             - Atoms:                                        574
                             - Shell sets:                                   574
                             - Shells:                                      2564
                             - Primitive Cartesian functions:               2910
                             - Cartesian basis functions:                   6736
                             - Spherical basis functions:                   6260

  Maximum angular momentum of- Orbital basis functions:                        3
                             - Local part of the GTH pseudopotential:          2
                             - Non-local part of the GTH pseudopotential:      4


 MODULE QUICKSTEP:  ATOMIC COORDINATES IN angstrom

 Atom  Kind  Element       X           Y           Z          Z(eff)       Mass
    1   1 C    6      11.858962   14.053537   21.731301       4.0000     12.0107
    2   1 C    6      12.456512   12.890712   21.012991       4.0000     12.0107
    3   1 C    6      11.704680   12.171399   20.071722       4.0000     12.0107
    4   1 C    6      12.281105   11.109221   19.379392       4.0000     12.0107
    5   1 C    6      13.621837   10.739783   19.606816       4.0000     12.0107
    6   1 C    6      14.355204   11.443814   20.579794       4.0000     12.0107
    7   1 C    6      13.782268   12.508777   21.271287       4.0000     12.0107
    8   1 C    6      14.261334    9.649088   18.833428       4.0000     12.0107
    9   1 C    6      14.256431    9.656921   17.411735       4.0000     12.0107
   10   1 C    6      13.743234   10.759054   16.657870       4.0000     12.0107
   11   1 C    6      49.127013   21.233216   21.869454       4.0000     12.0107
   12   1 C    6      48.550279   22.401288   21.142461       4.0000     12.0107
   13   1 C    6      49.300200   23.068419   20.161264       4.0000     12.0107
   14   1 C    6      48.733249   24.107559   19.428059       4.0000     12.0107
   15   1 C    6      47.402815   24.509413   19.656909       4.0000     12.0107
   16   1 C    6      46.672018   23.860777   20.670688       4.0000     12.0107
   17   1 C    6      47.234478   22.815871   21.400031       4.0000     12.0107
   18   1 C    6      46.772485   25.587053   18.859622       4.0000     12.0107
   19   1 C    6      46.761269   25.557316   17.437863       4.0000     12.0107
   20   1 C    6      47.261088   24.442157   16.694391       4.0000     12.0107
   21   1 C    6      14.860326    8.570574   16.698456       4.0000     12.0107
   22   1 C    6      14.892229    8.597211   19.510069       4.0000     12.0107
   23   1 C    6      49.113356   21.203342   10.145344       4.0000     12.0107
   24   1 C    6      48.527986   22.364760   10.872568       4.0000     12.0107
   25   1 C    6      49.266990   23.024982   11.865963       4.0000     12.0107
   26   1 C    6      48.690715   24.059588   12.597414       4.0000     12.0107
   27   1 C    6      47.360562   24.456921   12.358682       4.0000     12.0107
   28   1 C    6      46.640429   23.812572   11.334601       4.0000     12.0107
   29   1 C    6      47.213944   22.776644   10.602821       4.0000     12.0107
   30   1 C    6      46.722060   25.531857   13.149706       4.0000     12.0107
   31   1 C    6      46.733517   25.528088   14.571419       4.0000     12.0107
   32   1 C    6      47.248804   24.428827   15.327839       4.0000     12.0107
   33   1 C    6      40.633208   17.120560   15.310820       4.0000     12.0107
   34   1 C    6      40.646435   17.186043   12.502049       4.0000     12.0107
   35   1 C    6      11.883163   14.086580   10.285552       4.0000     12.0107
   36   1 C    6      12.472552   12.910954   10.989876       4.0000     12.0107
   37   1 C    6      11.714955   12.177500   11.915732       4.0000     12.0107
   38   1 C    6      12.281583   11.095059   12.584112       4.0000     12.0107
   39   1 C    6      13.620548   10.721655   12.352568       4.0000     12.0107
   40   1 C    6      14.358670   11.437546   11.392128       4.0000     12.0107
   41   1 C    6      13.793197   12.518708   10.719462       4.0000     12.0107
   42   1 C    6      14.254055    9.624799   13.122907       4.0000     12.0107
   43   1 C    6      14.252626    9.644647   14.544740       4.0000     12.0107
   44   1 C    6      13.742703   10.753562   15.291828       4.0000     12.0107
   45   1 C    6      22.511398    3.245103   21.741753       4.0000     12.0107
   46   1 C    6      23.223547    4.350325   21.039816       4.0000     12.0107
   47   1 C    6      24.219713    4.070599   20.092561       4.0000     12.0107
   48   1 C    6      24.845001    5.110140   19.408794       4.0000     12.0107
   49   1 C    6      24.489801    6.451952   19.651606       4.0000     12.0107
   50   1 C    6      23.521433    6.723117   20.635602       4.0000     12.0107
   51   1 C    6      22.891740    5.685522   21.318017       4.0000     12.0107
   52   1 C    6      25.094271    7.559533   18.876188       4.0000     12.0107
   53   1 C    6      25.070036    7.553024   17.454336       4.0000     12.0107
   54   1 C    6      24.375554    6.550718   16.705007       4.0000     12.0107
   55   1 C    6      38.303613   31.930452   21.838522       4.0000     12.0107
   56   1 C    6      37.575630   30.840899   21.127358       4.0000     12.0107
   57   1 C    6      36.617204   31.144775   20.148654       4.0000     12.0107
   58   1 C    6      36.001563   30.124372   19.429246       4.0000     12.0107
   59   1 C    6      36.329742   28.775567   19.667855       4.0000     12.0107
   60   1 C    6      37.258990   28.479088   20.682555       4.0000     12.0107
   61   1 C    6      37.878834   29.498228   21.400567       4.0000     12.0107
   62   1 C    6      35.727515   27.683690   18.871189       4.0000     12.0107
   63   1 C    6      35.758477   27.697630   17.449971       4.0000     12.0107
   64   1 C    6      36.465565   28.698776   16.712210       4.0000     12.0107
   65   1 C    6      25.688796    8.626880   16.736520       4.0000     12.0107
   66   1 C    6      25.687660    8.635518   19.548979       4.0000     12.0107
   67   1 C    6      38.328910   31.962449   10.155608       4.0000     12.0107
   68   1 C    6      37.607413   30.888353   10.896611       4.0000     12.0107
   69   1 C    6      36.678152   31.195801   11.901993       4.0000     12.0107
   70   1 C    6      36.069044   30.176225   12.630843       4.0000     12.0107
   71   1 C    6      36.375280   28.824231   12.377531       4.0000     12.0107
   72   1 C    6      37.281847   28.526666   11.341808       4.0000     12.0107
   73   1 C    6      37.893036   29.542751   10.614281       4.0000     12.0107
   74   1 C    6      35.768901   27.724487   13.161819       4.0000     12.0107
   75   1 C    6      35.780107   27.718211   14.583653       4.0000     12.0107
   76   1 C    6      36.475321   28.708978   15.345740       4.0000     12.0107
   77   1 C    6      46.135501   26.620737   15.281541       4.0000     12.0107
   78   1 C    6      46.088304   26.580343   12.473649       4.0000     12.0107
   79   1 C    6      22.463595    3.257059   10.257221       4.0000     12.0107
   80   1 C    6      23.162367    4.366320   10.976114       4.0000     12.0107
   81   1 C    6      24.169789    4.081618   11.911942       4.0000     12.0107
   82   1 C    6      24.801149    5.112418   12.604507       4.0000     12.0107
   83   1 C    6      24.445650    6.458558   12.385161       4.0000     12.0107
   84   1 C    6      23.462007    6.736509   11.416937       4.0000     12.0107
   85   1 C    6      22.826411    5.706101   10.724355       4.0000     12.0107
   86   1 C    6      25.074585    7.557700   13.161288       4.0000     12.0107
   87   1 C    6      25.060548    7.551639   14.584355       4.0000     12.0107
   88   1 C    6      24.369230    6.551137   15.338192       4.0000     12.0107
   89   1 C    6      26.641482   17.830689   21.739242       4.0000     12.0107
   90   1 C    6      25.330026   17.887248   21.026828       4.0000     12.0107
   91   1 C    6      25.074251   18.876999   20.065001       4.0000     12.0107
   92   1 C    6      23.855235   18.906133   19.391082       4.0000     12.0107
   93   1 C    6      22.856520   17.946002   19.652549       4.0000     12.0107
   94   1 C    6      23.108543   16.979715   20.644990       4.0000     12.0107
   95   1 C    6      24.327960   16.947525   21.319661       4.0000     12.0107
   96   1 C    6      21.581693   17.934321   18.890559       4.0000     12.0107
   97   1 C    6      21.581221   17.909979   17.467636       4.0000     12.0107
[...]
 flops   256 x   274 x  1566         707405045760       0.0%    100.0%      0.0%
 flops   274 x   256 x  1566         707405045760       0.0%    100.0%      0.0%
 flops   288 x   288 x  1564         835425239040       0.0%    100.0%      0.0%
 flops   288 x   288 x  1566         836493557760       0.0%    100.0%      0.0%
 flops   256 x   256 x   256         946503417856       0.0%    100.0%      0.0%
 flops  1564 x   256 x   268         965726208000       0.0%    100.0%      0.0%
 flops  1564 x   268 x   256         965726208000       0.0%    100.0%      0.0%
 flops  1566 x   256 x   268         966961152000       0.0%    100.0%      0.0%
 flops  1566 x   268 x   256         966961152000       0.0%    100.0%      0.0%
 flops  1564 x   256 x   274         987346944000       0.0%    100.0%      0.0%
 flops  1564 x   274 x   256         987346944000       0.0%    100.0%      0.0%
 flops  1566 x   256 x   274         988609536000       0.0%    100.0%      0.0%
 flops  1566 x   274 x   256         988609536000       0.0%    100.0%      0.0%
 flops    13 x    13 x   288        1080830290176       0.0%    100.0%      0.0%
 flops  1564 x   288 x   288        1167519744000       0.0%    100.0%      0.0%
 flops  1566 x   288 x   288        1169012736000       0.0%    100.0%      0.0%
 flops   256 x   288 x  1564        1485200424960       0.0%    100.0%      0.0%
 flops   288 x   256 x  1564        1485200424960       0.0%    100.0%      0.0%
 flops   256 x   288 x  1566        1487099658240       0.0%    100.0%      0.0%
 flops   288 x   256 x  1566        1487099658240       0.0%    100.0%      0.0%
 flops  1564 x   268 x  1564        1699195262976       0.0%    100.0%      0.0%
 flops  1566 x   268 x  1564        1701368146944       0.0%    100.0%      0.0%
 flops  1564 x   268 x  1566        1701368146944       0.0%    100.0%      0.0%
 flops  1566 x   268 x  1566        1703543809536       0.0%    100.0%      0.0%
 flops  1564 x   274 x  1564        1737236947968       0.0%    100.0%      0.0%
 flops  1566 x   274 x  1564        1739458478592       0.0%    100.0%      0.0%
 flops  1564 x   274 x  1566        1739458478592       0.0%    100.0%      0.0%
 flops  1566 x   274 x  1566        1741682850048       0.0%    100.0%      0.0%
 flops    13 x    13 x   256        1921476071424       0.0%    100.0%      0.0%
 flops  1564 x   256 x   288        2075590656000       0.0%    100.0%      0.0%
 flops  1564 x   288 x   256        2075590656000       0.0%    100.0%      0.0%
 flops  1566 x   288 x   256        2078244864000       0.0%    100.0%      0.0%
 flops  1566 x   256 x   288        2078244864000       0.0%    100.0%      0.0%
 flops    26 x    32 x    13        2513350629504       0.0%    100.0%      0.0%
 flops    13 x    32 x    26        2513350629504       0.0%    100.0%      0.0%
 flops   256 x   256 x  1564        2640356311040       0.0%    100.0%      0.0%
 flops   256 x   256 x  1566        2643732725760       0.0%    100.0%      0.0%
 flops    13 x    32 x     5        2865948022080       0.0%    100.0%      0.0%
 flops     5 x    32 x    13        2865948022080       0.0%    100.0%      0.0%
 flops  1564 x   288 x  1564        3652001759232       0.0%    100.0%      0.0%
 flops  1566 x   288 x  1564        3656671838208       0.0%    100.0%      0.0%
 flops  1564 x   288 x  1566        3656671838208       0.0%    100.0%      0.0%
 flops  1566 x   288 x  1566        3661347889152       0.0%    100.0%      0.0%
 flops  1564 x   256 x   256        3689938944000       0.0%    100.0%      0.0%
 flops  1566 x   256 x   256        3694657536000       0.0%    100.0%      0.0%
 flops  1564 x   256 x  1564        6492447571968       0.0%    100.0%      0.0%
 flops  1566 x   256 x  1564        6500749934592       0.0%    100.0%      0.0%
 flops  1564 x   256 x  1566        6500749934592       0.0%    100.0%      0.0%
 flops  1566 x   256 x  1566        6509062914048       0.0%    100.0%      0.0%
 flops    13 x    32 x    13       11945593490688       0.0%    100.0%      0.0%
 flops inhomo. stacks                           0       0.0%      0.0%      0.0%
 flops total                       151.843968E+12       0.0%    100.0%      0.0%
 flops max/rank                     10.325415E+12       0.0%    100.0%      0.0%
 matmuls inhomo. stacks                         0       0.0%      0.0%      0.0%
 matmuls total                         3483575644       0.0%    100.0%      0.0%
 number of processed stacks               4844570       0.0%    100.0%      0.0%
 average stack size                                     0.0     719.1       0.0
 marketing flops                   254.943638E+12
 -------------------------------------------------------------------------------
 # multiplications                           9663
 max memory usage/rank               1.879945E+09
 # max total images/rank                        1
 # max 3D layers                                1
 # MPI messages exchanged                  927648
 MPI messages size (bytes):
  total size                         2.496256E+12
  min size                           0.000000E+00
  max size                          19.618848E+06
  average size                       2.690952E+06
 MPI breakdown and total messages size (bytes):
             size <=      128                 264                        0
       128 < size <=     8192                   0                        0
      8192 < size <=    32768                   0                        0
     32768 < size <=   131072                  24                  1633248
    131072 < size <=  4194304              849168            1605925326240
   4194304 < size <= 16777216               47088             280879402032
  16777216 < size                           31104             609445555200
 -------------------------------------------------------------------------------
 -                                                                             -
 -                      DBCSR MESSAGE PASSING PERFORMANCE                      -
 -                                                                             -
 -------------------------------------------------------------------------------
 ROUTINE             CALLS      AVE VOLUME [Bytes]
 MP_Bcast              191                     12.
 MP_Allreduce        49962                    117.
 MP_Alltoall         34723                 220613.
 MP_ISend           154600                1055342.
 MP_IRecv           154600                1041642.
 -------------------------------------------------------------------------------

 -------------------------------------------------------------------------------
 -                                                                             -
 -                                GRID STATISTICS                              -
 -                                                                             -
 -------------------------------------------------------------------------------
 LP    KERNEL             BACKEND                              COUNT     PERCENT
 4     collocate general  REF                               86111816      26.84%
 3     collocate general  REF                               79337580      24.73%
 4     integrate general  REF                               43055908      13.42%
 3     integrate general  REF                               39668790      12.36%
 2     collocate general  REF                               24982048       7.79%
 5     collocate general  REF                               21170856       6.60%
 2     integrate general  REF                               12491024       3.89%
 5     integrate general  REF                               10585428       3.30%
 6     collocate general  REF                                2286200       0.71%
 6     integrate general  REF                                1143100       0.36%
 0     collocate general  REF                                  18368       0.01%
 0     integrate general  REF                                  18368       0.01%
 -------------------------------------------------------------------------------

 MEMORY| Estimated peak process memory [MiB]                                1794

 -------------------------------------------------------------------------------
 ----                             MULTIGRID INFO                            ----
 -------------------------------------------------------------------------------
 count for grid        1:        1783264          cutoff [a.u.]          180.00
 count for grid        2:         482627          cutoff [a.u.]           60.00
 count for grid        3:         331317          cutoff [a.u.]           20.00
 count for grid        4:          32791          cutoff [a.u.]            6.67
 count for grid        5:            640          cutoff [a.u.]            2.22
 total gridlevel count  :        2630639

 -------------------------------------------------------------------------------
 -                                                                             -
 -                         MESSAGE PASSING PERFORMANCE                         -
 -                                                                             -
 -------------------------------------------------------------------------------

 ROUTINE             CALLS      AVE VOLUME [Bytes]
 MP_Group                5
 MP_Bcast            42654                 198504.
 MP_Allreduce       106006                    963.
 MP_Sync               653
 MP_Alltoall          9832               94974570.
 MP_ISendRecv        43470                 338731.
 MP_Wait             64766
 MP_ISend            15488                6048345.
 MP_IRecv            15488                6048956.
 MP_Recv              1054                1602560.
 -------------------------------------------------------------------------------


 -------------------------------------------------------------------------------
 -                                                                             -
 -                           R E F E R E N C E S                               -
 -                                                                             -
 -------------------------------------------------------------------------------
 
 CP2K version 9.1, the CP2K developers group (2021).
 CP2K is freely available from https://www.cp2k.org/ .

 Kuehne,Thomas D.; Iannuzzi,Marcella; Del Ben,Mauro;
 Rybkin,Vladimir V.; Seewald,Patrick; Stein,Frederick; Laino,Teodoro;
 Khaliullin,Rustam Z.; Schuett,Ole; Schiffmann,Florian; Golze,Dorothea;
 Wilhelm,Jan; Chulkov,Sergey; Bani-Hashemian,Mohammad Hossein;
 Weber,Valery; Borstnik,Urban; Taillefumier,Mathieu;
 Jakobovits,Alice Shoshana; Lazzaro,Alfio; Pabst,Hans; Mueller,Tiziano;
 Schade,Robert; Guidon,Manuel; Andermatt,Samuel; Holmberg,Nico;
 Schenter,Gregory K.; Hehn,Anna; Bussy,Augustin; Belleflamme,Fabian;
 Tabacchi,Gloria; Gloess,Andreas; Lass,Michael; Bethune,Iain;
 Mundy,Christopher J.; Plessl,Christian; Watkins,Matt;
 VandeVondele,Joost; Krack,Matthias; Hutter,Juerg. 
 The Journal of Chemical Physics, 152 (19), (2020). 
 CP2K: An electronic structure and molecular dynamics software package -
 Quickstep: Efficient and accurate electronic structure calculations.
 https://doi.org/10.1063/5.0007045

 Goerigk, Lars; Hansen, Andreas; Bauer, Christoph; Ehrlich, Stephan;
 Najibi, Asim; Grimme, Stefan. , 19 (48), (2017). 
 A look at the density functional theory zoo with the advanced GMTKN55 database
 for general main group thermochemistry, kinetics and noncovalent interactions.
 https://doi.org/10.1039/C7CP04913G

 Schuett, Ole; Messmer, Peter; Hutter, Juerg; VandeVondele, Joost. 
 Electronic Structure Calculations on Graphics Processing Units, John
 Wiley & Sons, Ltd, 173-190 (2016). 
 GPU-Accelerated Sparse Matrix-Matrix Multiplication for
 Linear Scaling Density Functional Theory.
 https://doi.org/10.1002/9781118670712.ch8

 Heinecke, A; Henry, G; Hutchinson, M; Pabst, H. 
 Proceedings of Intl. Supercomputing Conference, 981-991 (2016). 
 LIBXSMM: Accelerating Small Matrix Multiplications
 by Runtime Code Generation.
 https://doi.org/10.1109/SC.2016.83

 Borstnik, U; VandeVondele, J; Weber, V; Hutter, J. 
 PARALLEL COMPUTING, 40 (5-6), 47-58 (2014). 
 Sparse matrix multiplication: The distributed block-compressed sparse
 row library.
 https://doi.org/10.1016/j.parco.2014.03.012

 Hutter, J; Iannuzzi, M; Schiffmann, F; VandeVondele, J. 
 WIREs Comput Mol Sci., 4 (1), 15-25 (2014). 
 CP2K: atomistic simulations of condensed matter systems.
 https://doi.org/10.1002/wcms.1159

 Grimme, S; Ehrlich, S; Goerigk, L. 
 JOURNAL OF COMPUTATIONAL CHEMISTRY, 32, 1456 (2011). 
 Effect of the damping function in dispersion corrected density functional theory.
 https://doi.org/10.1002/jcc.21759

 Grimme, S; Antony, J; Ehrlich, S; Krieg, H. 
 JOURNAL OF CHEMICAL PHYSICS, 132 (15), 154104 (2010). 
 A consistent and accurate ab initio parametrization of density
 functional dispersion correction (DFT-D) for the 94 elements H-Pu.
 https://doi.org/10.1063/1.3382344

 VandeVondele, J; Hutter, J. 
 JOURNAL OF CHEMICAL PHYSICS, 127 (11), 114105 (2007). 
 Gaussian basis sets for accurate calculations on molecular systems in
 gas and condensed phases.
 https://doi.org/10.1063/1.2770708

 Krack, M. 
 THEORETICAL CHEMISTRY ACCOUNTS, 114 (1-3), 145-152 (2005). 
 Pseudopotentials for H to Kr optimized for gradient-corrected
 exchange-correlation functionals.
 https://doi.org/10.1007/s00214-005-0655-y

 VandeVondele, J; Krack, M; Mohamed, F; Parrinello, M; Chassaing, T;
 Hutter, J. COMPUTER PHYSICS COMMUNICATIONS, 167 (2), 103-128 (2005). 
 QUICKSTEP: Fast and accurate density functional calculations using a
 mixed Gaussian and plane waves approach.
 https://doi.org/10.1016/j.cpc.2004.12.014

 Frigo, M; Johnson, SG. 
 PROCEEDINGS OF THE IEEE, 93 (2), 216-231 (2005). 
 The design and implementation of FFTW3.
 https://doi.org/10.1109/JPROC.2004.840301

 VandeVondele, J; Hutter, J. 
 JOURNAL OF CHEMICAL PHYSICS, 118 (10), 4365-4369 (2003). 
 An efficient orbital transformation method for electronic structure
 calculations.
 https://doi.org/10.1063/1.1543154

 Hartwigsen, C; Goedecker, S; Hutter, J. 
 PHYSICAL REVIEW B, 58 (7), 3641-3662 (1998). 
 Relativistic separable dual-space Gaussian pseudopotentials from H to Rn.
 https://doi.org/10.1103/PhysRevB.58.3641

 Lippert, G; Hutter, J; Parrinello, M. 
 MOLECULAR PHYSICS, 92 (3), 477-487 (1997). 
 A hybrid Gaussian and plane wave density functional scheme.
 https://doi.org/10.1080/002689797170220

 Perdew, JP; Burke, K; Ernzerhof, M. 
 PHYSICAL REVIEW LETTERS, 77 (18), 3865-3868 (1996). 
 Generalized gradient approximation made simple.
 https://doi.org/10.1103/PhysRevLett.77.3865

 Goedecker, S; Teter, M; Hutter, J. 
 PHYSICAL REVIEW B, 54 (3), 1703-1710 (1996). 
 Separable dual-space Gaussian pseudopotentials.
 https://doi.org/10.1103/PhysRevB.54.1703


 -------------------------------------------------------------------------------
 -                                                                             -
 -                                T I M I N G                                  -
 -                                                                             -
 -------------------------------------------------------------------------------
 SUBROUTINE                       CALLS  ASD         SELF TIME        TOTAL TIME
                                MAXIMUM       AVERAGE  MAXIMUM  AVERAGE  MAXIMUM
 CP2K                                 1  1.0    0.032    0.036 8310.481 8310.515
 qs_energies                          1  2.0    0.001    0.002 8307.786 8307.819
 scf_env_do_scf                       1  3.0    0.001    0.001 8291.804 8291.837
 scf_env_do_scf_inner_loop          321  4.0    0.010    0.031 8230.994 8231.157
 qs_ks_update_qs_env                322  5.0    0.003    0.003 3985.767 3986.504
 rebuild_ks_matrix                  321  6.0    0.002    0.003 3983.936 3984.669
 qs_ks_build_kohn_sham_matrix       321  7.0    0.067    0.071 3983.934 3984.667
 qs_rho_update_rho                  322  5.0    0.003    0.003 3291.583 3292.704
 calculate_rho_elec                 644  6.0    7.313    7.444 3291.580 3292.701
 grid_collocate_task_list           644  7.0 2413.240 2512.315 2413.240 2512.315
 pw_transfer                       9492  9.5    1.177    1.307 2146.573 2253.014
 qs_vxc_create                      321  8.0    0.009    0.010 2248.061 2249.313
 fft_wrap_pw1pw2                   8850 10.5    0.164    0.181 2129.263 2235.517
 fft_wrap_pw1pw2_180               4986 11.9  162.237  186.148 2048.738 2149.115
 fft3d_ps                          8850 12.5 1009.603 1037.147 1600.294 1720.027
 xc_rho_set_and_dset_create         321 10.0   23.824   24.020 1432.938 1658.890
 sum_up_and_integrate               161  8.0    4.024    4.105 1528.919 1528.971
 integrate_v_rspace                 322  9.0    0.016    0.018 1524.893 1525.016
 xc_vxc_pw_create                   161  9.0   21.594   22.382 1425.910 1427.164
 grid_integrate_task_list           322 10.0 1175.522 1230.202 1175.522 1230.202
 qs_scf_new_mos                     321  5.0    0.003    0.004  978.573  980.164
 qs_scf_loop_do_ot                  321  6.0    0.004    0.005  978.570  980.160
 dbcsr_multiply_generic            9663  9.9    0.647    0.702  931.734  935.586
 density_rs2pw                      644  7.0    0.060    0.070  856.734  928.757
 ot_scf_mini                        321  7.0    0.025    0.030  904.635  905.562
 xc_exc_calc                        160  9.0    1.788    1.814  822.142  822.172
 multiply_cannon                   9663 10.9    0.965    1.343  749.829  765.794
 multiply_cannon_loop              9663 11.9    0.742    0.876  719.282  746.740
 xc_functional_eval                 321 11.0    0.006    0.007  516.266  742.698
 pbe_lsd_eval                       321 12.0  516.260  742.691  516.260  742.691
 multiply_cannon_multrec          38652 12.9  572.840  622.532  572.967  622.656
 ot_mini                            321  8.0    0.004    0.005  486.625  487.491
 rs_pw_transfer                    4834  9.0    0.098    0.111  401.540  475.790
 mp_alltoall_z22v                  8850 14.5  323.947  449.699  323.947  449.699
 yz_to_x                           4509 12.6   86.454   93.818  287.047  395.203
 x_to_yz                           4341 14.4  179.955  180.803  303.309  320.551
 mp_waitany                       15488 11.0  211.913  292.604  211.913  292.604
 potential_pw2rs                    322 10.0    0.497    0.548  291.592  291.706
 ot_new_cg_direction                161  9.0    0.007    0.009  282.365  282.382
 rs_pw_transfer_RS2PW_180           646  9.0   58.222   71.632  190.785  281.780
 apply_preconditioner_dbcsr         324 10.0    0.001    0.001  280.076  281.213
 apply_all                          324 11.0    0.420    0.445  280.076  281.213
 mp_waitall_1                    513102 13.9  203.982  229.867  203.982  229.867
 mp_sum_d                         26410 11.4  127.603  226.713  127.603  226.713
 pw_scatter_p                      4341 13.4  209.885  212.965  209.885  212.965
 qs_ot_get_derivative               322  9.0    0.005    0.007  202.143  203.058
 qs_ot_get_p                        644  8.0    0.005    0.007  182.838  184.937
 -------------------------------------------------------------------------------

 The number of warnings for this run is : 0
 
 -------------------------------------------------------------------------------
  **** **** ******  **  PROGRAM ENDED AT                 2022-12-08 14:49:06.991
 ***** ** ***  *** **   PROGRAM RAN ON             node0587.palmetto.clemson.edu
 **    ****   ******    PROGRAM RAN BY                                   svicchi
 ***** **    ** ** **   PROGRAM PROCESS ID                               3278268
  **** **  *******  **  PROGRAM STOPPED IN   /scratch1/svicchi/CP2K-367300.pbs02
