 DBCSR| CPU Multiplication driver                                           XSMM
 DBCSR| Multrec recursion limit                                              512
 DBCSR| Multiplication stack size                                           1000
 DBCSR| Maximum elements for images                                    UNLIMITED
 DBCSR| Multiplicative factor virtual images                                   1
 DBCSR| Use multiplication densification                                       T
 DBCSR| Multiplication size stacks                                             3
 DBCSR| Use memory pool for CPU allocation                                     F
 DBCSR| Number of 3D layers                                               SINGLE
 DBCSR| Use MPI memory allocation                                              F
 DBCSR| Use RMA algorithm                                                      F
 DBCSR| Use Communication thread                                               T
 DBCSR| Communication thread load                                             87
 DBCSR| MPI: My node id                                                        0
 DBCSR| MPI: Number of nodes                                                  16
 DBCSR| OMP: Current number of threads                                         1
 DBCSR| OMP: Max number of threads                                             1
 DBCSR| Split modifier for TAS multiplication algorithm                  1.0E+00


  **** **** ******  **  PROGRAM STARTED AT               2022-12-08 12:29:34.769
 ***** ** ***  *** **   PROGRAM STARTED ON         node0579.palmetto.clemson.edu
 **    ****   ******    PROGRAM STARTED BY                               svicchi
 ***** **    ** ** **   PROGRAM PROCESS ID                                867981
  **** **  *******  **  PROGRAM STARTED IN   /scratch1/svicchi/CP2K-367299.pbs02

 CP2K| version string:                                          CP2K version 9.1
 CP2K| source code revision number:                                  git:d8d7100
 CP2K| cp2kflags: omp libint fftw3 libxc parallel mpi3 scalapack xsmm           
 CP2K| is freely available from                            https://www.cp2k.org/
 CP2K| Program compiled at                          Mon Aug  8 12:17:03 EDT 2022
 CP2K| Program compiled on                         node0352.palmetto.clemson.edu
 CP2K| Program compiled for                           linux-rocky8-ivybridge-gcc
 CP2K| Data directory path    /software/spackages/linux-rocky8-ivybridge/gcc-9.5
 CP2K| Input file name                                            yellow-SPE.inp

 GLOBAL| Force Environment number                                              1
 GLOBAL| Basis set file name                                          BASIS_file
 GLOBAL| Potential file name                                     POTENTIALS_file
 GLOBAL| MM Potential file name                                     MM_POTENTIAL
 GLOBAL| Coordinate file name                                         yellow.xyz
 GLOBAL| Method name                                                        CP2K
 GLOBAL| Project name                                            info-yellow-SPE
 GLOBAL| Run type                                                         ENERGY
 GLOBAL| FFT library                                                       FFTW3
 GLOBAL| Diagonalization library                                       ScaLAPACK
 GLOBAL| Orthonormality check for eigenvectors                          DISABLED
 GLOBAL| Matrix multiplication library                                 ScaLAPACK
 GLOBAL| All-to-all communication in single precision                          F
 GLOBAL| FFTs using library dependent lengths                                  F
 GLOBAL| Grid backend                                                       AUTO
 GLOBAL| Global print level                                               MEDIUM
 GLOBAL| MPI I/O enabled                                                       T
 GLOBAL| Total number of message passing processes                            16
 GLOBAL| Number of threads for this process                                    1
 GLOBAL| This output is from process                                           0
 GLOBAL| Stack size for threads created by OpenMP (OMP_STACKSIZE)        default
 GLOBAL| CPU model name                Intel(R) Xeon(R) CPU E5-2660 v2 @ 2.20GHz
 GLOBAL| CPUID                                                              1001

 MEMORY| system memory details [Kb]
 MEMORY|                        rank 0           min           max       average
 MEMORY| MemTotal            263811688     263811688     263811688     263811688
 MEMORY| MemFree             170803908     170803908     170803908     170803908
 MEMORY| Buffers                  2764          2764          2764          2764
 MEMORY| Cached               86737512      86737512      86737512      86737512
 MEMORY| Slab                  1120080       1120080       1120080       1120080
 MEMORY| SReclaimable           736832        736832        736832        736832
 MEMORY| MemLikelyFree       258281016     258281016     258281016     258281016


 *** Fundamental physical constants (SI units) ***

 *** Literature: B. J. Mohr and B. N. Taylor,
 ***             CODATA recommended values of the fundamental physical
 ***             constants: 2006, Web Version 5.1
 ***             http://physics.nist.gov/constants

 Speed of light in vacuum [m/s]                             2.99792458000000E+08
 Magnetic constant or permeability of vacuum [N/A**2]       1.25663706143592E-06
 Electric constant or permittivity of vacuum [F/m]          8.85418781762039E-12
 Planck constant (h) [J*s]                                  6.62606896000000E-34
 Planck constant (h-bar) [J*s]                              1.05457162825177E-34
 Elementary charge [C]                                      1.60217648700000E-19
 Electron mass [kg]                                         9.10938215000000E-31
 Electron g factor [ ]                                     -2.00231930436220E+00
 Proton mass [kg]                                           1.67262163700000E-27
 Fine-structure constant                                    7.29735253760000E-03
 Rydberg constant [1/m]                                     1.09737315685270E+07
 Avogadro constant [1/mol]                                  6.02214179000000E+23
 Boltzmann constant [J/K]                                   1.38065040000000E-23
 Atomic mass unit [kg]                                      1.66053878200000E-27
 Bohr radius [m]                                            5.29177208590000E-11

 *** Conversion factors ***

 [u] -> [a.u.]                                              1.82288848426455E+03
 [Angstrom] -> [Bohr] = [a.u.]                              1.88972613288564E+00
 [a.u.] = [Bohr] -> [Angstrom]                              5.29177208590000E-01
 [a.u.] -> [s]                                              2.41888432650478E-17
 [a.u.] -> [fs]                                             2.41888432650478E-02
 [a.u.] -> [J]                                              4.35974393937059E-18
 [a.u.] -> [N]                                              8.23872205491840E-08
 [a.u.] -> [K]                                              3.15774647902944E+05
 [a.u.] -> [kJ/mol]                                         2.62549961709828E+03
 [a.u.] -> [kcal/mol]                                       6.27509468713739E+02
 [a.u.] -> [Pa]                                             2.94210107994716E+13
 [a.u.] -> [bar]                                            2.94210107994716E+08
 [a.u.] -> [atm]                                            2.90362800883016E+08
 [a.u.] -> [eV]                                             2.72113838565563E+01
 [a.u.] -> [Hz]                                             6.57968392072181E+15
 [a.u.] -> [1/cm] (wave numbers)                            2.19474631370540E+05
 [a.u./Bohr**2] -> [1/cm]                                   5.14048714338585E+03
 

 CELL_TOP| Volume [angstrom^3]:                                     22838.217204
 CELL_TOP| Vector a [angstrom    40.611     0.000     0.000   |a| =    40.611054
 CELL_TOP| Vector b [angstrom    20.305    35.170     0.000   |b| =    40.611054
 CELL_TOP| Vector c [angstrom     0.000     0.000    15.990   |c| =    15.989791
 CELL_TOP| Angle (b,c), alpha [degree]:                                90.000000
 CELL_TOP| Angle (a,c), beta  [degree]:                                90.000000
 CELL_TOP| Angle (a,b), gamma [degree]:                                60.000057
 CELL_TOP| Requested initial symmetry:                       MONOCLINIC_GAMMA_AB
 CELL_TOP| Numerically orthorhombic:                                          NO

 CELL| Volume [angstrom^3]:                                         22838.217204
 CELL| Vector a [angstrom]:      40.611     0.000     0.000   |a| =    40.611054
 CELL| Vector b [angstrom]:      20.305    35.170     0.000   |b| =    40.611054
 CELL| Vector c [angstrom]:       0.000     0.000    15.990   |c| =    15.989791
 CELL| Angle (b,c), alpha [degree]:                                    90.000000
 CELL| Angle (a,c), beta  [degree]:                                    90.000000
 CELL| Angle (a,b), gamma [degree]:                                    60.000057
 CELL| Requested initial symmetry:                           MONOCLINIC_GAMMA_AB
 CELL| Numerically orthorhombic:                                              NO

 CELL_REF| Volume [angstrom^3]:                                     22838.217204
 CELL_REF| Vector a [angstrom    40.611     0.000     0.000   |a| =    40.611054
 CELL_REF| Vector b [angstrom    20.305    35.170     0.000   |b| =    40.611054
 CELL_REF| Vector c [angstrom     0.000     0.000    15.990   |c| =    15.989791
 CELL_REF| Angle (b,c), alpha [degree]:                                90.000000
 CELL_REF| Angle (a,c), beta  [degree]:                                90.000000
 CELL_REF| Angle (a,b), gamma [degree]:                                60.000057
 CELL_REF| Requested initial symmetry:                       MONOCLINIC_GAMMA_AB
 CELL_REF| Numerically orthorhombic:                                          NO

 *******************************************************************************
 *******************************************************************************
 **                                                                           **
 **     #####                         ##              ##                      **
 **    ##   ##            ##          ##              ##                      **
 **   ##     ##                       ##            ######                    **
 **   ##     ##  ##   ##  ##   #####  ##  ##   ####   ##    #####    #####    **
 **   ##     ##  ##   ##  ##  ##      ## ##   ##      ##   ##   ##  ##   ##   **
 **   ##  ## ##  ##   ##  ##  ##      ####     ###    ##   ######   ######    **
 **    ##  ###   ##   ##  ##  ##      ## ##      ##   ##   ##       ##        **
 **     #######   #####   ##   #####  ##  ##  ####    ##    #####   ##        **
 **           ##                                                    ##        **
 **                                                                           **
 **                                                ... make the atoms dance   **
 **                                                                           **
 **            Copyright (C) by CP2K developers group (2000-2021)             **
 **                      J. Chem. Phys. 152, 194103 (2020)                    **
 **                                                                           **
 *******************************************************************************

 DFT| Spin unrestricted (spin-polarized) Kohn-Sham calculation               UKS
 DFT| Multiplicity                                                             9
 DFT| Number of spin states                                                    2
 DFT| Charge                                                                   0
 DFT| Self-interaction correction (SIC)                                       NO
 DFT| Cutoffs: density                                              1.000000E-10
 DFT|          gradient                                             1.000000E-10
 DFT|          tau                                                  1.000000E-10
 DFT|          cutoff_smoothing_range                               0.000000E+00
 DFT| XC density smoothing                                                  NONE
 DFT| XC derivatives                                                          PW
 FUNCTIONAL| ROUTINE=NEW
 FUNCTIONAL| PBE:
 FUNCTIONAL| J.P.Perdew, K.Burke, M.Ernzerhof, Phys. Rev. Letter, vol. 77, n 18,
 FUNCTIONAL|  pp. 3865-3868, (1996){spin polarized}                             
 vdW POTENTIAL|                                                   Pair Potential
 vdW POTENTIAL|          DFT-D3 (Version 3.1)
 vdW POTENTIAL|          Potential Form: S. Grimme et al, JCP 132: 154104 (2010)
 vdW POTENTIAL|          BJ Damping: S. Grimme et al, JCC 32: 1456 (2011)
 vdW POTENTIAL|          Cutoff Radius [Bohr]:                             20.00
 vdW POTENTIAL|          s6 Scaling Factor:                               1.0000
 vdW POTENTIAL|          a1 Damping Factor:                               0.4289
 vdW POTENTIAL|          s8 Scaling Factor:                               0.7875
 vdW POTENTIAL|          a2 Damping Factor:                               4.4407
 vdW POTENTIAL|          Cutoff for CN calculation:                   0.1000E-05

 QS| Method:                                                                 GPW
 QS| Density plane wave grid type                        NON-SPHERICAL FULLSPACE
 QS| Number of grid levels:                                                    5
 QS| Density cutoff [a.u.]:                                                180.0
 QS| Multi grid cutoff [a.u.]: 1) grid level                               180.0
 QS|                           2) grid level                                60.0
 QS|                           3) grid level                                20.0
 QS|                           4) grid level                                 6.7
 QS|                           5) grid level                                 2.2
 QS| Grid level progression factor:                                          3.0
 QS| Relative density cutoff [a.u.]:                                        40.0
 QS| Interaction thresholds: eps_pgf_orb:                                1.0E-05
 QS|                         eps_filter_matrix:                          0.0E+00
 QS|                         eps_core_charge:                            1.0E-12
 QS|                         eps_rho_gspace:                             1.0E-10
 QS|                         eps_rho_rspace:                             1.0E-10
 QS|                         eps_gvg_rspace:                             1.0E-05
 QS|                         eps_ppl:                                    1.0E-02
 QS|                         eps_ppnl:                                   1.0E-07


 ATOMIC KIND INFORMATION

  1. Atomic kind: C                                     Number of atoms:     264

     Orbital Basis Set                                     DZVP-MOLOPT-SR-GTH-q4

       Number of orbital shell sets:                                           1
       Number of orbital shells:                                               5
       Number of primitive Cartesian functions:                                5
       Number of Cartesian basis functions:                                   14
       Number of spherical basis functions:                                   13
       Norm type:                                                              2

       Normalised Cartesian orbitals:

                        Set   Shell   Orbital            Exponent    Coefficient

                          1       1    2s                5.605331       0.322515
                                                         2.113016       0.213043
                                                         0.769911      -0.209686
                                                         0.348157      -0.219794
                                                         0.128212      -0.022789

                          1       2    3s                5.605331       0.552234
                                                         2.113016       0.082072
                                                         0.769911       0.007843
                                                         0.348157       0.136893
                                                         0.128212       0.074283

                          1       3    3px               5.605331      -0.703879
                                                         2.113016      -0.642521
                                                         0.769911      -0.374851
                                                         0.348157      -0.139743
                                                         0.128212      -0.027849
                          1       3    3py               5.605331      -0.703879
                                                         2.113016      -0.642521
                                                         0.769911      -0.374851
                                                         0.348157      -0.139743
                                                         0.128212      -0.027849
                          1       3    3pz               5.605331      -0.703879
                                                         2.113016      -0.642521
                                                         0.769911      -0.374851
                                                         0.348157      -0.139743
                                                         0.128212      -0.027849

                          1       4    4px               5.605331      -0.480376
                                                         2.113016      -0.552894
                                                         0.769911      -0.316145
                                                         0.348157       0.210505
                                                         0.128212       0.076095
                          1       4    4py               5.605331      -0.480376
                                                         2.113016      -0.552894
                                                         0.769911      -0.316145
                                                         0.348157       0.210505
                                                         0.128212       0.076095
                          1       4    4pz               5.605331      -0.480376
                                                         2.113016      -0.552894
                                                         0.769911      -0.316145
                                                         0.348157       0.210505
                                                         0.128212       0.076095

                          1       5    4dx2              5.605331       0.640026
                                                         2.113016       0.274300
                                                         0.769911       0.446711
                                                         0.348157       0.028674
                                                         0.128212       0.029790
                          1       5    4dxy              5.605331       1.108557
                                                         2.113016       0.475102
                                                         0.769911       0.773726
                                                         0.348157       0.049666
                                                         0.128212       0.051599
                          1       5    4dxz              5.605331       1.108557
                                                         2.113016       0.475102
                                                         0.769911       0.773726
                                                         0.348157       0.049666
                                                         0.128212       0.051599
                          1       5    4dy2              5.605331       0.640026
                                                         2.113016       0.274300
                                                         0.769911       0.446711
                                                         0.348157       0.028674
                                                         0.128212       0.029790
                          1       5    4dyz              5.605331       1.108557
                                                         2.113016       0.475102
                                                         0.769911       0.773726
                                                         0.348157       0.049666
                                                         0.128212       0.051599
                          1       5    4dz2              5.605331       0.640026
                                                         2.113016       0.274300
                                                         0.769911       0.446711
                                                         0.348157       0.028674
                                                         0.128212       0.029790

       Atomic covalent radius [Angstrom]:                                  0.770

       Atomic van der Waals radius [Angstrom]:                             1.700

     GTH Potential information for                                    GTH-PBE-q4

       Description:                       Goedecker-Teter-Hutter pseudopotential
                                           Goedecker et al., PRB 54, 1703 (1996)
                                          Hartwigsen et al., PRB 58, 3641 (1998)
                                                      Krack, TCA 114, 145 (2005)

       Gaussian exponent of the core charge distribution:               4.364419
       Electronic configuration (s p d ...):                               2   2

       Parameters of the local part of the GTH pseudopotential:

                          rloc        C1          C2          C3          C4
                        0.338471   -8.803674    1.339211

       Parameters of the non-local part of the GTH pseudopotential:

                   l      r(l)      h(i,j,l)

                   0    0.302576    9.622487
                   1    0.291507

  2. Atomic kind: H                                     Number of atoms:     182

     Orbital Basis Set                                     DZVP-MOLOPT-SR-GTH-q1

       Number of orbital shell sets:                                           1
       Number of orbital shells:                                               3
       Number of primitive Cartesian functions:                                5
       Number of Cartesian basis functions:                                    5
       Number of spherical basis functions:                                    5
       Norm type:                                                              2

       Normalised Cartesian orbitals:

                        Set   Shell   Orbital            Exponent    Coefficient

                          1       1    2s               10.068468      -0.133023
                                                         2.680223      -0.177618
                                                         0.791502      -0.258419
                                                         0.239116      -0.107525
                                                         0.082193      -0.014019

                          1       2    3s               10.068468       0.344673
                                                         2.680223       1.819821
                                                         0.791502      -0.999069
                                                         0.239116       0.017430
                                                         0.082193       0.082660

                          1       3    3px              10.068468       0.155326
                                                         2.680223       0.367157
                                                         0.791502       0.311480
                                                         0.239116       0.080105
                                                         0.082193       0.033440
                          1       3    3py              10.068468       0.155326
                                                         2.680223       0.367157
                                                         0.791502       0.311480
                                                         0.239116       0.080105
                                                         0.082193       0.033440
                          1       3    3pz              10.068468       0.155326
                                                         2.680223       0.367157
                                                         0.791502       0.311480
                                                         0.239116       0.080105
                                                         0.082193       0.033440

       Atomic covalent radius [Angstrom]:                                  0.320

       Atomic van der Waals radius [Angstrom]:                             1.090

     GTH Potential information for                                    GTH-PBE-q1

       Description:                       Goedecker-Teter-Hutter pseudopotential
                                           Goedecker et al., PRB 54, 1703 (1996)
                                          Hartwigsen et al., PRB 58, 3641 (1998)
                                                      Krack, TCA 114, 145 (2005)

       Gaussian exponent of the core charge distribution:              12.500000
       Electronic configuration (s p d ...):                                   1

       Parameters of the local part of the GTH pseudopotential:

                          rloc        C1          C2          C3          C4
                        0.200000   -4.178900    0.724463

  3. Atomic kind: Ni                                    Number of atoms:       4

     Orbital Basis Set                                    DZVP-MOLOPT-SR-GTH-q18

       Number of orbital shell sets:                                           1
       Number of orbital shells:                                               8
       Number of primitive Cartesian functions:                                6
       Number of Cartesian basis functions:                                   31
       Number of spherical basis functions:                                   26
       Norm type:                                                              2

       Normalised Cartesian orbitals:

                        Set   Shell   Orbital            Exponent    Coefficient

                          1       1    2s               10.077428      -0.684558
                                                         5.847736      -0.844524
                                                         2.494033       1.088856
                                                         0.988355       0.395503
                                                         0.344978       0.010224
                                                         0.099466      -0.003250

                          1       2    3s               10.077428       0.096747
                                                         5.847736       0.162504
                                                         2.494033      -0.297192
                                                         0.988355      -0.319752
                                                         0.344978       0.088318
                                                         0.099466       0.118587

                          1       3    4s               10.077428       0.036437
                                                         5.847736      -0.381480
                                                         2.494033       0.003759
                                                         0.988355      -1.048256
                                                         0.344978       0.855825
                                                         0.099466      -0.176350

                          1       4    3px              10.077428      -3.133913
                                                         5.847736       3.027656
                                                         2.494033       2.353227
                                                         0.988355       0.554184
                                                         0.344978       0.019462
                                                         0.099466      -0.000291
                          1       4    3py              10.077428      -3.133913
                                                         5.847736       3.027656
                                                         2.494033       2.353227
                                                         0.988355       0.554184
                                                         0.344978       0.019462
                                                         0.099466      -0.000291
                          1       4    3pz              10.077428      -3.133913
                                                         5.847736       3.027656
                                                         2.494033       2.353227
                                                         0.988355       0.554184
                                                         0.344978       0.019462
                                                         0.099466      -0.000291

                          1       5    4px              10.077428      -0.112729
                                                         5.847736      -0.114008
                                                         2.494033      -0.347303
                                                         0.988355      -0.110323
                                                         0.344978       0.154096
                                                         0.099466       0.058386
                          1       5    4py              10.077428      -0.112729
                                                         5.847736      -0.114008
                                                         2.494033      -0.347303
                                                         0.988355      -0.110323
                                                         0.344978       0.154096
                                                         0.099466       0.058386
                          1       5    4pz              10.077428      -0.112729
                                                         5.847736      -0.114008
                                                         2.494033      -0.347303
                                                         0.988355      -0.110323
                                                         0.344978       0.154096
                                                         0.099466       0.058386

                          1       6    4dx2             10.077428       8.232726
                                                         5.847736       9.105758
                                                         2.494033       2.849835
                                                         0.988355       0.554319
                                                         0.344978       0.067245
                                                         0.099466       0.001940
                          1       6    4dxy             10.077428      14.259500
                                                         5.847736      15.771636
                                                         2.494033       4.936060
                                                         0.988355       0.960109
                                                         0.344978       0.116472
                                                         0.099466       0.003360
                          1       6    4dxz             10.077428      14.259500
                                                         5.847736      15.771636
                                                         2.494033       4.936060
                                                         0.988355       0.960109
                                                         0.344978       0.116472
                                                         0.099466       0.003360
                          1       6    4dy2             10.077428       8.232726
                                                         5.847736       9.105758
                                                         2.494033       2.849835
                                                         0.988355       0.554319
                                                         0.344978       0.067245
                                                         0.099466       0.001940
                          1       6    4dyz             10.077428      14.259500
                                                         5.847736      15.771636
                                                         2.494033       4.936060
                                                         0.988355       0.960109
                                                         0.344978       0.116472
                                                         0.099466       0.003360
                          1       6    4dz2             10.077428       8.232726
                                                         5.847736       9.105758
                                                         2.494033       2.849835
                                                         0.988355       0.554319
                                                         0.344978       0.067245
                                                         0.099466       0.001940

                          1       7    5dx2             10.077428      -2.715373
                                                         5.847736      -4.020640
                                                         2.494033      -1.397569
                                                         0.988355      -0.076143
                                                         0.344978       0.033435
                                                         0.099466       0.026032
                          1       7    5dxy             10.077428      -4.703164
                                                         5.847736      -6.963952
                                                         2.494033      -2.420661
                                                         0.988355      -0.131883
                                                         0.344978       0.057911
                                                         0.099466       0.045088
                          1       7    5dxz             10.077428      -4.703164
                                                         5.847736      -6.963952
                                                         2.494033      -2.420661
                                                         0.988355      -0.131883
                                                         0.344978       0.057911
                                                         0.099466       0.045088
                          1       7    5dy2             10.077428      -2.715373
                                                         5.847736      -4.020640
                                                         2.494033      -1.397569
                                                         0.988355      -0.076143
                                                         0.344978       0.033435
                                                         0.099466       0.026032
                          1       7    5dyz             10.077428      -4.703164
                                                         5.847736      -6.963952
                                                         2.494033      -2.420661
                                                         0.988355      -0.131883
                                                         0.344978       0.057911
                                                         0.099466       0.045088
                          1       7    5dz2             10.077428      -2.715373
                                                         5.847736      -4.020640
                                                         2.494033      -1.397569
                                                         0.988355      -0.076143
                                                         0.344978       0.033435
                                                         0.099466       0.026032

                          1       8    5fx3             10.077428      -0.467694
                                                         5.847736       0.618100
                                                         2.494033       0.066069
                                                         0.988355       0.262898
                                                         0.344978       0.004720
                                                         0.099466       0.007748
                          1       8    5fx2y            10.077428      -1.045795
                                                         5.847736       1.382114
                                                         2.494033       0.147734
                                                         0.988355       0.587859
                                                         0.344978       0.010555
                                                         0.099466       0.017325
                          1       8    5fx2z            10.077428      -1.045795
                                                         5.847736       1.382114
                                                         2.494033       0.147734
                                                         0.988355       0.587859
                                                         0.344978       0.010555
                                                         0.099466       0.017325
                          1       8    5fxy2            10.077428      -1.045795
                                                         5.847736       1.382114
                                                         2.494033       0.147734
                                                         0.988355       0.587859
                                                         0.344978       0.010555
                                                         0.099466       0.017325
                          1       8    5fxyz            10.077428      -1.811371
                                                         5.847736       2.393892
                                                         2.494033       0.255883
                                                         0.988355       1.018201
                                                         0.344978       0.018282
                                                         0.099466       0.030008
                          1       8    5fxz2            10.077428      -1.045795
                                                         5.847736       1.382114
                                                         2.494033       0.147734
                                                         0.988355       0.587859
                                                         0.344978       0.010555
                                                         0.099466       0.017325
                          1       8    5fy3             10.077428      -0.467694
                                                         5.847736       0.618100
                                                         2.494033       0.066069
                                                         0.988355       0.262898
                                                         0.344978       0.004720
                                                         0.099466       0.007748
                          1       8    5fy2z            10.077428      -1.045795
                                                         5.847736       1.382114
                                                         2.494033       0.147734
                                                         0.988355       0.587859
                                                         0.344978       0.010555
                                                         0.099466       0.017325
                          1       8    5fyz2            10.077428      -1.045795
                                                         5.847736       1.382114
                                                         2.494033       0.147734
                                                         0.988355       0.587859
                                                         0.344978       0.010555
                                                         0.099466       0.017325
                          1       8    5fz3             10.077428      -0.467694
                                                         5.847736       0.618100
                                                         2.494033       0.066069
                                                         0.988355       0.262898
                                                         0.344978       0.004720
                                                         0.099466       0.007748

       Atomic covalent radius [Angstrom]:                                  1.150

       Atomic van der Waals radius [Angstrom]:                             1.630

     GTH Potential information for                                   GTH-PBE-q18

       Description:                       Goedecker-Teter-Hutter pseudopotential
                                           Goedecker et al., PRB 54, 1703 (1996)
                                          Hartwigsen et al., PRB 58, 3641 (1998)
                                                      Krack, TCA 114, 145 (2005)

       Gaussian exponent of the core charge distribution:               4.081633
       Electronic configuration (s p d ...):                           4   6   8

       Parameters of the local part of the GTH pseudopotential:

                          rloc        C1          C2          C3          C4
                        0.350000    2.102166    0.648484

       Parameters of the non-local part of the GTH pseudopotential:

                   l      r(l)      h(i,j,l)

                   0    0.261295    0.622658    9.970227
                                    9.970227  -12.871507
                   1    0.224253  -11.142708   12.429566
                                   12.429566  -14.706861
                   2    0.215348  -12.628146

  4. Atomic kind: O                                     Number of atoms:     101

     Orbital Basis Set                                     DZVP-MOLOPT-SR-GTH-q6

       Number of orbital shell sets:                                           1
       Number of orbital shells:                                               5
       Number of primitive Cartesian functions:                                5
       Number of Cartesian basis functions:                                   14
       Number of spherical basis functions:                                   13
       Norm type:                                                              2

       Normalised Cartesian orbitals:

                        Set   Shell   Orbital            Exponent    Coefficient

                          1       1    2s               10.389228       0.396646
                                                         3.849621       0.208811
                                                         1.388401      -0.301641
                                                         0.496955      -0.274061
                                                         0.162492      -0.033677

                          1       2    3s               10.389228       0.303673
                                                         3.849621       0.240943
                                                         1.388401      -0.313066
                                                         0.496955      -0.043055
                                                         0.162492       0.213991

                          1       3    3px              10.389228      -1.530415
                                                         3.849621      -1.371928
                                                         1.388401      -0.761951
                                                         0.496955      -0.253695
                                                         0.162492      -0.035541
                          1       3    3py              10.389228      -1.530415
                                                         3.849621      -1.371928
                                                         1.388401      -0.761951
                                                         0.496955      -0.253695
                                                         0.162492      -0.035541
                          1       3    3pz              10.389228      -1.530415
                                                         3.849621      -1.371928
                                                         1.388401      -0.761951
                                                         0.496955      -0.253695
                                                         0.162492      -0.035541

                          1       4    4px              10.389228      -0.565392
                                                         3.849621      -0.038231
                                                         1.388401      -0.382373
                                                         0.496955       0.179070
                                                         0.162492       0.122714
                          1       4    4py              10.389228      -0.565392
                                                         3.849621      -0.038231
                                                         1.388401      -0.382373
                                                         0.496955       0.179070
                                                         0.162492       0.122714
                          1       4    4pz              10.389228      -0.565392
                                                         3.849621      -0.038231
                                                         1.388401      -0.382373
                                                         0.496955       0.179070
                                                         0.162492       0.122714

                          1       5    4dx2             10.389228       1.867377
                                                         3.849621       0.670994
                                                         1.388401       1.353441
                                                         0.496955       0.273538
                                                         0.162492       0.006620
                          1       5    4dxy             10.389228       3.234392
                                                         3.849621       1.162195
                                                         1.388401       2.344229
                                                         0.496955       0.473781
                                                         0.162492       0.011466
                          1       5    4dxz             10.389228       3.234392
                                                         3.849621       1.162195
                                                         1.388401       2.344229
                                                         0.496955       0.473781
                                                         0.162492       0.011466
                          1       5    4dy2             10.389228       1.867377
                                                         3.849621       0.670994
                                                         1.388401       1.353441
                                                         0.496955       0.273538
                                                         0.162492       0.006620
                          1       5    4dyz             10.389228       3.234392
                                                         3.849621       1.162195
                                                         1.388401       2.344229
                                                         0.496955       0.473781
                                                         0.162492       0.011466
                          1       5    4dz2             10.389228       1.867377
                                                         3.849621       0.670994
                                                         1.388401       1.353441
                                                         0.496955       0.273538
                                                         0.162492       0.006620

       Atomic covalent radius [Angstrom]:                                  0.730

       Atomic van der Waals radius [Angstrom]:                             1.520

     GTH Potential information for                                    GTH-PBE-q6

       Description:                       Goedecker-Teter-Hutter pseudopotential
                                           Goedecker et al., PRB 54, 1703 (1996)
                                          Hartwigsen et al., PRB 58, 3641 (1998)
                                                      Krack, TCA 114, 145 (2005)

       Gaussian exponent of the core charge distribution:               8.360253
       Electronic configuration (s p d ...):                               2   4

       Parameters of the local part of the GTH pseudopotential:

                          rloc        C1          C2          C3          C4
                        0.244554  -16.667215    2.487311

       Parameters of the non-local part of the GTH pseudopotential:

                   l      r(l)      h(i,j,l)

                   0    0.220956   18.337458
                   1    0.211332

  5. Atomic kind: Zr                                    Number of atoms:      18

     Orbital Basis Set                                    DZVP-MOLOPT-SR-GTH-q12

       Number of orbital shell sets:                                           1
       Number of orbital shells:                                               8
       Number of primitive Cartesian functions:                                7
       Number of Cartesian basis functions:                                   31
       Number of spherical basis functions:                                   26
       Norm type:                                                              2

       Normalised Cartesian orbitals:

                        Set   Shell   Orbital            Exponent    Coefficient

                          1       1    2s                7.568386      -0.292925
                                                         2.940870       1.053802
                                                         1.478550      -0.194175
                                                         0.699653      -0.477593
                                                         0.314575      -0.092850
                                                         0.129869       0.000474
                                                         0.046851      -0.000485

                          1       2    3s                7.568386      -0.107602
                                                         2.940870       0.453694
                                                         1.478550      -0.133469
                                                         0.699653      -0.242646
                                                         0.314575      -0.112324
                                                         0.129869       0.079936
                                                         0.046851       0.057275

                          1       3    4s                7.568386      -0.039443
                                                         2.940870      -0.239516
                                                         1.478550       0.462939
                                                         0.699653       0.054202
                                                         0.314575       0.378792
                                                         0.129869      -0.467495
                                                         0.046851       0.135277

                          1       4    3px               7.568386      -0.367032
                                                         2.940870       1.199938
                                                         1.478550      -0.729727
                                                         0.699653      -0.527717
                                                         0.314575      -0.102074
                                                         0.129869      -0.002163
                                                         0.046851      -0.000016
                          1       4    3py               7.568386      -0.367032
                                                         2.940870       1.199938
                                                         1.478550      -0.729727
                                                         0.699653      -0.527717
                                                         0.314575      -0.102074
                                                         0.129869      -0.002163
                                                         0.046851      -0.000016
                          1       4    3pz               7.568386      -0.367032
                                                         2.940870       1.199938
                                                         1.478550      -0.729727
                                                         0.699653      -0.527717
                                                         0.314575      -0.102074
                                                         0.129869      -0.002163
                                                         0.046851      -0.000016

                          1       5    4px               7.568386      -0.041149
                                                         2.940870       0.296409
                                                         1.478550      -0.285807
                                                         0.699653      -0.254468
                                                         0.314575       0.008755
                                                         0.129869       0.053085
                                                         0.046851       0.019526
                          1       5    4py               7.568386      -0.041149
                                                         2.940870       0.296409
                                                         1.478550      -0.285807
                                                         0.699653      -0.254468
                                                         0.314575       0.008755
                                                         0.129869       0.053085
                                                         0.046851       0.019526
                          1       5    4pz               7.568386      -0.041149
                                                         2.940870       0.296409
                                                         1.478550      -0.285807
                                                         0.699653      -0.254468
                                                         0.314575       0.008755
                                                         0.129869       0.053085
                                                         0.046851       0.019526

                          1       6    4dx2              7.568386      -0.104612
                                                         2.940870      -0.141339
                                                         1.478550       0.540679
                                                         0.699653       0.284252
                                                         0.314575       0.094561
                                                         0.129869       0.012195
                                                         0.046851       0.000412
                          1       6    4dxy              7.568386      -0.181193
                                                         2.940870      -0.244806
                                                         1.478550       0.936483
                                                         0.699653       0.492339
                                                         0.314575       0.163785
                                                         0.129869       0.021122
                                                         0.046851       0.000713
                          1       6    4dxz              7.568386      -0.181193
                                                         2.940870      -0.244806
                                                         1.478550       0.936483
                                                         0.699653       0.492339
                                                         0.314575       0.163785
                                                         0.129869       0.021122
                                                         0.046851       0.000713
                          1       6    4dy2              7.568386      -0.104612
                                                         2.940870      -0.141339
                                                         1.478550       0.540679
                                                         0.699653       0.284252
                                                         0.314575       0.094561
                                                         0.129869       0.012195
                                                         0.046851       0.000412
                          1       6    4dyz              7.568386      -0.181193
                                                         2.940870      -0.244806
                                                         1.478550       0.936483
                                                         0.699653       0.492339
                                                         0.314575       0.163785
                                                         0.129869       0.021122
                                                         0.046851       0.000713
                          1       6    4dz2              7.568386      -0.104612
                                                         2.940870      -0.141339
                                                         1.478550       0.540679
                                                         0.699653       0.284252
                                                         0.314575       0.094561
                                                         0.129869       0.012195
                                                         0.046851       0.000412

                          1       7    5dx2              7.568386      -0.107600
                                                         2.940870       0.230973
                                                         1.478550      -0.200541
                                                         0.699653      -0.193347
                                                         0.314575       0.007888
                                                         0.129869       0.006706
                                                         0.046851       0.006900
                          1       7    5dxy              7.568386      -0.186369
                                                         2.940870       0.400056
                                                         1.478550      -0.347346
                                                         0.699653      -0.334887
                                                         0.314575       0.013663
                                                         0.129869       0.011615
                                                         0.046851       0.011951
                          1       7    5dxz              7.568386      -0.186369
                                                         2.940870       0.400056
                                                         1.478550      -0.347346
                                                         0.699653      -0.334887
                                                         0.314575       0.013663
                                                         0.129869       0.011615
                                                         0.046851       0.011951
                          1       7    5dy2              7.568386      -0.107600
                                                         2.940870       0.230973
                                                         1.478550      -0.200541
                                                         0.699653      -0.193347
                                                         0.314575       0.007888
                                                         0.129869       0.006706
                                                         0.046851       0.006900
                          1       7    5dyz              7.568386      -0.186369
                                                         2.940870       0.400056
                                                         1.478550      -0.347346
                                                         0.699653      -0.334887
                                                         0.314575       0.013663
                                                         0.129869       0.011615
                                                         0.046851       0.011951
                          1       7    5dz2              7.568386      -0.107600
                                                         2.940870       0.230973
                                                         1.478550      -0.200541
                                                         0.699653      -0.193347
                                                         0.314575       0.007888
                                                         0.129869       0.006706
                                                         0.046851       0.006900

                          1       8    5fx3              7.568386       0.371480
                                                         2.940870      -0.155968
                                                         1.478550      -0.211323
                                                         0.699653      -0.255968
                                                         0.314575      -0.046738
                                                         0.129869      -0.005674
                                                         0.046851       0.000171
                          1       8    5fx2y             7.568386       0.830655
                                                         2.940870      -0.348756
                                                         1.478550      -0.472533
                                                         0.699653      -0.572361
                                                         0.314575      -0.104510
                                                         0.129869      -0.012687
                                                         0.046851       0.000382
                          1       8    5fx2z             7.568386       0.830655
                                                         2.940870      -0.348756
                                                         1.478550      -0.472533
                                                         0.699653      -0.572361
                                                         0.314575      -0.104510
                                                         0.129869      -0.012687
                                                         0.046851       0.000382
                          1       8    5fxy2             7.568386       0.830655
                                                         2.940870      -0.348756
                                                         1.478550      -0.472533
                                                         0.699653      -0.572361
                                                         0.314575      -0.104510
                                                         0.129869      -0.012687
                                                         0.046851       0.000382
                          1       8    5fxyz             7.568386       1.438737
                                                         2.940870      -0.604063
                                                         1.478550      -0.818452
                                                         0.699653      -0.991359
                                                         0.314575      -0.181017
                                                         0.129869      -0.021975
                                                         0.046851       0.000662
                          1       8    5fxz2             7.568386       0.830655
                                                         2.940870      -0.348756
                                                         1.478550      -0.472533
                                                         0.699653      -0.572361
                                                         0.314575      -0.104510
                                                         0.129869      -0.012687
                                                         0.046851       0.000382
                          1       8    5fy3              7.568386       0.371480
                                                         2.940870      -0.155968
                                                         1.478550      -0.211323
                                                         0.699653      -0.255968
                                                         0.314575      -0.046738
                                                         0.129869      -0.005674
                                                         0.046851       0.000171
                          1       8    5fy2z             7.568386       0.830655
                                                         2.940870      -0.348756
                                                         1.478550      -0.472533
                                                         0.699653      -0.572361
                                                         0.314575      -0.104510
                                                         0.129869      -0.012687
                                                         0.046851       0.000382
                          1       8    5fyz2             7.568386       0.830655
                                                         2.940870      -0.348756
                                                         1.478550      -0.472533
                                                         0.699653      -0.572361
                                                         0.314575      -0.104510
                                                         0.129869      -0.012687
                                                         0.046851       0.000382
                          1       8    5fz3              7.568386       0.371480
                                                         2.940870      -0.155968
                                                         1.478550      -0.211323
                                                         0.699653      -0.255968
                                                         0.314575      -0.046738
                                                         0.129869      -0.005674
                                                         0.046851       0.000171

       Atomic covalent radius [Angstrom]:                                  1.450

       Atomic van der Waals radius [Angstrom]:                             1.920

     GTH Potential information for                                   GTH-PBE-q12

       Description:                       Goedecker-Teter-Hutter pseudopotential
                                           Goedecker et al., PRB 54, 1703 (1996)
                                          Hartwigsen et al., PRB 58, 3641 (1998)
                                                      Krack, TCA 114, 145 (2005)

       Gaussian exponent of the core charge distribution:               2.263468
       Electronic configuration (s p d ...):                           4   6   2

       Parameters of the local part of the GTH pseudopotential:

                          rloc        C1          C2          C3          C4
                        0.470000    7.796057   -1.893210

       Parameters of the non-local part of the GTH pseudopotential:

                   l      r(l)      h(i,j,l)

                   0    0.259829   23.380874   -8.571939
                                   -8.571939   11.066326
                   1    0.288969    8.592766   -5.377358
                                   -5.377358    6.362576
                   2    0.581245    0.027811    0.276862
                                    0.276862   -0.313932


 MOLECULE KIND INFORMATION


 All atoms are their own molecule, skipping detailed information


 TOTAL NUMBERS AND MAXIMUM NUMBERS

  Total number of            - Atomic kinds:                                   5
                             - Atoms:                                        569
                             - Shell sets:                                   569
                             - Shells:                                      2547
                             - Primitive Cartesian functions:               2885
                             - Cartesian basis functions:                   6702
                             - Spherical basis functions:                   6227

  Maximum angular momentum of- Orbital basis functions:                        3
                             - Local part of the GTH pseudopotential:          2
                             - Non-local part of the GTH pseudopotential:      4


 MODULE QUICKSTEP:  ATOMIC COORDINATES IN angstrom

 Atom  Kind  Element       X           Y           Z          Z(eff)       Mass
    1   1 C    6      11.858699   14.053499   21.731311       4.0000     12.0107
    2   1 C    6      12.456219   12.890539   21.013032       4.0000     12.0107
    3   1 C    6      11.704479   12.171500   20.071497       4.0000     12.0107
    4   1 C    6      12.280898   11.109314   19.379146       4.0000     12.0107
    5   1 C    6      13.621523   10.739649   19.606796       4.0000     12.0107
    6   1 C    6      14.354735   11.443343   20.580138       4.0000     12.0107
    7   1 C    6      13.781814   12.508305   21.271645       4.0000     12.0107
    8   1 C    6      14.261100    9.649002   18.833407       4.0000     12.0107
    9   1 C    6      14.256413    9.656915   17.411709       4.0000     12.0107
   10   1 C    6      13.743188   10.759013   16.657803       4.0000     12.0107
   11   1 C    6      49.126890   21.233238   21.869465       4.0000     12.0107
   12   1 C    6      48.550134   22.401166   21.142315       4.0000     12.0107
   13   1 C    6      49.300199   23.068615   20.161445       4.0000     12.0107
   14   1 C    6      48.733248   24.107757   19.428255       4.0000     12.0107
   15   1 C    6      47.402682   24.509309   19.656850       4.0000     12.0107
   16   1 C    6      46.671676   23.860292   20.670220       4.0000     12.0107
   17   1 C    6      47.234150   22.815383   21.399546       4.0000     12.0107
   18   1 C    6      46.772415   25.587008   18.859595       4.0000     12.0107
   19   1 C    6      46.761307   25.557375   17.437838       4.0000     12.0107
   20   1 C    6      47.261192   24.442254   16.694356       4.0000     12.0107
   21   1 C    6      14.860406    8.570609   16.698445       4.0000     12.0107
   22   1 C    6      14.891903    8.597071   19.510060       4.0000     12.0107
   23   1 C    6      49.113159   21.203455   10.145380       4.0000     12.0107
   24   1 C    6      48.527740   22.364765   10.872653       4.0000     12.0107
   25   1 C    6      49.266991   23.025619   11.865446       4.0000     12.0107
   26   1 C    6      48.690614   24.060175   12.596879       4.0000     12.0107
   27   1 C    6      47.360138   24.456778   12.358735       4.0000     12.0107
   28   1 C    6      46.639676   23.811682   11.335375       4.0000     12.0107
   29   1 C    6      47.213269   22.775768   10.603630       4.0000     12.0107
   30   1 C    6      46.721681   25.531769   13.149737       4.0000     12.0107
   31   1 C    6      46.733411   25.528147   14.571436       4.0000     12.0107
   32   1 C    6      47.248855   24.428929   15.327806       4.0000     12.0107
   33   1 C    6      40.634879   17.167077   15.320203       4.0000     12.0107
   34   1 C    6      40.656216   17.182223   12.511423       4.0000     12.0107
   35   1 C    6      11.882957   14.086515   10.285463       4.0000     12.0107
   36   1 C    6      12.472336   12.910732   10.989729       4.0000     12.0107
   37   1 C    6      11.714858   12.177562   11.915888       4.0000     12.0107
   38   1 C    6      12.281463   11.095114   12.584309       4.0000     12.0107
   39   1 C    6      13.620267   10.721362   12.352434       4.0000     12.0107
   40   1 C    6      14.358188   11.436858   11.391538       4.0000     12.0107
   41   1 C    6      13.792730   12.518006   10.718837       4.0000     12.0107
   42   1 C    6      14.253916    9.624630   13.122836       4.0000     12.0107
   43   1 C    6      14.252622    9.644586   14.544679       4.0000     12.0107
   44   1 C    6      13.742682   10.753502   15.291758       4.0000     12.0107
   45   1 C    6      22.512236    3.244274   21.743055       4.0000     12.0107
   46   1 C    6      23.227779    4.348876   21.043913       4.0000     12.0107
   47   1 C    6      24.224258    4.067602   20.097532       4.0000     12.0107
   48   1 C    6      24.852427    5.106339   19.415452       4.0000     12.0107
   49   1 C    6      24.499848    6.448505   19.659626       4.0000     12.0107
   50   1 C    6      23.531718    6.721303   20.643214       4.0000     12.0107
   51   1 C    6      22.898855    5.684383   21.323715       4.0000     12.0107
   52   1 C    6      25.106416    7.554338   18.883849       4.0000     12.0107
   53   1 C    6      25.077695    7.547589   17.462373       4.0000     12.0107
   54   1 C    6      24.374593    6.548925   16.716308       4.0000     12.0107
   55   1 C    6      38.299134   31.927977   21.840962       4.0000     12.0107
   56   1 C    6      37.559838   30.839075   21.137494       4.0000     12.0107
   57   1 C    6      36.594256   31.145987   20.166294       4.0000     12.0107
   58   1 C    6      35.965794   30.128216   19.453816       4.0000     12.0107
   59   1 C    6      36.287765   28.777087   19.689129       4.0000     12.0107
   60   1 C    6      37.223204   28.477485   20.697582       4.0000     12.0107
   61   1 C    6      37.855449   29.494292   21.409598       4.0000     12.0107
   62   1 C    6      35.678124   27.689046   18.889768       4.0000     12.0107
   63   1 C    6      35.714129   27.706075   17.467923       4.0000     12.0107
   64   1 C    6      36.425083   28.707751   16.734338       4.0000     12.0107
   65   1 C    6      25.700291    8.617723   16.742504       4.0000     12.0107
   66   1 C    6      25.705223    8.628243   19.554654       4.0000     12.0107
   67   1 C    6      38.329908   31.961720   10.159071       4.0000     12.0107
   68   1 C    6      37.610348   30.890004   10.906987       4.0000     12.0107
   69   1 C    6      36.678231   31.202354   11.908602       4.0000     12.0107
   70   1 C    6      36.065261   30.187090   12.640709       4.0000     12.0107
   71   1 C    6      36.369469   28.833093   12.395045       4.0000     12.0107
   72   1 C    6      37.282147   28.530597   11.365781       4.0000     12.0107
   73   1 C    6      37.897111   29.542492   10.634896       4.0000     12.0107
   74   1 C    6      35.752654   27.736317   13.177083       4.0000     12.0107
   75   1 C    6      35.751850   27.730568   14.599562       4.0000     12.0107
   76   1 C    6      36.442109   28.720093   15.367825       4.0000     12.0107
   77   1 C    6      46.135442   26.620807   15.281566       4.0000     12.0107
   78   1 C    6      46.087739   26.580122   12.473667       4.0000     12.0107
   79   1 C    6      22.461123    3.256070   10.257877       4.0000     12.0107
   80   1 C    6      23.155478    4.364635   10.980689       4.0000     12.0107
   81   1 C    6      24.157491    4.078423   11.921629       4.0000     12.0107
   82   1 C    6      24.785696    5.108372   12.617703       4.0000     12.0107
   83   1 C    6      24.432212    6.454482   12.395704       4.0000     12.0107
   84   1 C    6      23.453392    6.733919   11.423157       4.0000     12.0107
   85   1 C    6      22.820512    5.704233   10.727533       4.0000     12.0107
   86   1 C    6      25.063120    7.552479   13.170276       4.0000     12.0107
   87   1 C    6      25.055853    7.546221   14.593201       4.0000     12.0107
   88   1 C    6      24.362347    6.549298   15.349634       4.0000     12.0107
   89   1 C    6      26.621556   17.860801   21.777754       4.0000     12.0107
   90   1 C    6      25.313579   17.903046   21.052252       4.0000     12.0107
   91   1 C    6      25.058404   18.897385   20.094757       4.0000     12.0107
   92   1 C    6      23.846312   18.919252   19.407093       4.0000     12.0107
   93   1 C    6      22.853316   17.949085   19.653474       4.0000     12.0107
   94   1 C    6      23.106005   16.976185   20.639088       4.0000     12.0107
   95   1 C    6      24.319767   16.949664   21.325283       4.0000     12.0107
   96   1 C    6      21.580212   17.936196   18.888345       4.0000     12.0107
   97   1 C    6      21.578813   17.917393   17.465459       4.0000     12.0107
[...]
 flops  1556 x   262 x   262         846576567264       0.0%    100.0%      0.0%
 flops   256 x   288 x  1559         868961157120       0.0%    100.0%      0.0%
 flops   288 x   256 x  1559         868961157120       0.0%    100.0%      0.0%
 flops  1556 x   270 x   270         899065202400       0.0%    100.0%      0.0%
 flops  1556 x   288 x   262         930587982336       0.0%    100.0%      0.0%
 flops  1556 x   262 x   288         930587982336       0.0%    100.0%      0.0%
 flops  1556 x   288 x   270         959002882560       0.0%    100.0%      0.0%
 flops  1556 x   270 x   288         959002882560       0.0%    100.0%      0.0%
 flops  1559 x   288 x  1559        1063967362560       0.0%    100.0%      0.0%
 flops   256 x   256 x   256        1111859658752       0.0%    100.0%      0.0%
 flops   256 x   262 x  1556        1183488122880       0.0%    100.0%      0.0%
 flops   262 x   256 x  1556        1183488122880       0.0%    100.0%      0.0%
 flops  1559 x   256 x   288        1214706548736       0.0%    100.0%      0.0%
 flops  1559 x   288 x   256        1214706548736       0.0%    100.0%      0.0%
 flops   256 x   270 x  1556        1219625164800       0.0%    100.0%      0.0%
 flops   270 x   256 x  1556        1219625164800       0.0%    100.0%      0.0%
 flops    13 x    13 x   288        1262471857920       0.0%    100.0%      0.0%
 flops  1556 x   262 x  1559        1449078277440       0.0%    100.0%      0.0%
 flops  1559 x   262 x  1556        1449078277440       0.0%    100.0%      0.0%
 flops   288 x   288 x  1556        1463550197760       0.0%    100.0%      0.0%
 flops  1556 x   270 x  1559        1493324942400       0.0%    100.0%      0.0%
 flops  1559 x   270 x  1556        1493324942400       0.0%    100.0%      0.0%
 flops   256 x   256 x  1559        1544819834880       0.0%    100.0%      0.0%
 flops  1556 x   256 x   262        1654378635264       0.0%    100.0%      0.0%
 flops  1556 x   262 x   256        1654378635264       0.0%    100.0%      0.0%
 flops  1556 x   256 x   270        1704894013440       0.0%    100.0%      0.0%
 flops  1556 x   270 x   256        1704894013440       0.0%    100.0%      0.0%
 flops  1559 x   256 x  1559        1891497533440       0.0%    100.0%      0.0%
 flops  1556 x   288 x   288        2045872816128       0.0%    100.0%      0.0%
 flops  1559 x   256 x   256        2159478308864       0.0%    100.0%      0.0%
 flops    13 x    13 x   256        2244394414080       0.0%    100.0%      0.0%
 flops   256 x   288 x  1556        2601867018240       0.0%    100.0%      0.0%
 flops   288 x   256 x  1556        2601867018240       0.0%    100.0%      0.0%
 flops    26 x    32 x    13        2939670429696       0.0%    100.0%      0.0%
 flops    13 x    32 x    26        2939670429696       0.0%    100.0%      0.0%
 flops  1556 x   288 x  1559        3185759877120       0.0%    100.0%      0.0%
 flops  1559 x   288 x  1556        3185759877120       0.0%    100.0%      0.0%
 flops     5 x    32 x    13        3264004560960       0.0%    100.0%      0.0%
 flops    13 x    32 x     5        3264004560960       0.0%    100.0%      0.0%
 flops  1556 x   288 x   256        3637107228672       0.0%    100.0%      0.0%
 flops  1556 x   256 x   288        3637107228672       0.0%    100.0%      0.0%
 flops  1556 x   262 x  1556        4338869402880       0.0%    100.0%      0.0%
 flops  1556 x   270 x  1556        4471353964800       0.0%    100.0%      0.0%
 flops   256 x   256 x  1556        4625541365760       0.0%    100.0%      0.0%
 flops  1556 x   256 x  1559        5663573114880       0.0%    100.0%      0.0%
 flops  1559 x   256 x  1556        5663573114880       0.0%    100.0%      0.0%
 flops  1556 x   256 x   256        6465968406528       0.0%    100.0%      0.0%
 flops  1556 x   288 x  1556        9538888458240       0.0%    100.0%      0.0%
 flops    13 x    32 x    13       13921193183040       0.0%    100.0%      0.0%
 flops  1556 x   256 x  1556       16958023925760       0.0%    100.0%      0.0%
 flops inhomo. stacks                           0       0.0%      0.0%      0.0%
 flops total                       175.482605E+12       0.0%    100.0%      0.0%
 flops max/rank                     12.008271E+12       0.0%    100.0%      0.0%
 matmuls inhomo. stacks                         0       0.0%      0.0%      0.0%
 matmuls total                         4000586430       0.0%    100.0%      0.0%
 number of processed stacks               5584922       0.0%    100.0%      0.0%
 average stack size                                     0.0     716.3       0.0
 marketing flops                   294.546441E+12
 -------------------------------------------------------------------------------
 # multiplications                          11343
 max memory usage/rank               1.903337E+09
 # max total images/rank                        1
 # max 3D layers                                1
 # MPI messages exchanged                 1088928
 MPI messages size (bytes):
  total size                         2.899062E+12
  min size                           0.000000E+00
  max size                          19.443848E+06
  average size                       2.662308E+06
 MPI breakdown and total messages size (bytes):
             size <=      128                 264                        0
       128 < size <=     8192                   0                        0
      8192 < size <=    32768                   0                        0
     32768 < size <=   131072                  24                  1627584
    131072 < size <=  4194304              997008            1866405800496
   4194304 < size <= 16777216               55152             325381605624
  16777216 < size                           36480             707265648960
 -------------------------------------------------------------------------------
 -                                                                             -
 -                      DBCSR MESSAGE PASSING PERFORMANCE                      -
 -                                                                             -
 -------------------------------------------------------------------------------
 ROUTINE             CALLS      AVE VOLUME [Bytes]
 MP_Bcast              191                     12.
 MP_Allreduce        58586                    117.
 MP_Alltoall         40651                 216523.
 MP_ISend           181480                1045584.
 MP_IRecv           181480                1031834.
 -------------------------------------------------------------------------------

 -------------------------------------------------------------------------------
 -                                                                             -
 -                                GRID STATISTICS                              -
 -                                                                             -
 -------------------------------------------------------------------------------
 LP    KERNEL             BACKEND                              COUNT     PERCENT
 4     collocate general  REF                              100113300      27.11%
 3     collocate general  REF                               90775188      24.58%
 4     integrate general  REF                               50056650      13.55%
 3     integrate general  REF                               45387594      12.29%
 2     collocate general  REF                               27901692       7.55%
 5     collocate general  REF                               24737832       6.70%
 2     integrate general  REF                               13950846       3.78%
 5     integrate general  REF                               12368916       3.35%
 6     collocate general  REF                                2676996       0.72%
 6     integrate general  REF                                1338498       0.36%
 0     collocate general  REF                                  18208       0.00%
 0     integrate general  REF                                  18208       0.00%
 -------------------------------------------------------------------------------

 MEMORY| Estimated peak process memory [MiB]                                1816

 -------------------------------------------------------------------------------
 ----                             MULTIGRID INFO                            ----
 -------------------------------------------------------------------------------
 count for grid        1:        1781196          cutoff [a.u.]          180.00
 count for grid        2:         480803          cutoff [a.u.]           60.00
 count for grid        3:         329160          cutoff [a.u.]           20.00
 count for grid        4:          32387          cutoff [a.u.]            6.67
 count for grid        5:            640          cutoff [a.u.]            2.22
 total gridlevel count  :        2624186

 -------------------------------------------------------------------------------
 -                                                                             -
 -                         MESSAGE PASSING PERFORMANCE                         -
 -                                                                             -
 -------------------------------------------------------------------------------

 ROUTINE             CALLS      AVE VOLUME [Bytes]
 MP_Group                5
 MP_Bcast            49878                 169932.
 MP_Allreduce       124430                    961.
 MP_Sync               765
 MP_Alltoall         11540               95000717.
 MP_ISendRecv        51030                 338731.
 MP_Wait             76022
 MP_ISend            18176                6047403.
 MP_IRecv            18176                6048014.
 MP_Recv              1178                1594112.
 -------------------------------------------------------------------------------


 -------------------------------------------------------------------------------
 -                                                                             -
 -                           R E F E R E N C E S                               -
 -                                                                             -
 -------------------------------------------------------------------------------
 
 CP2K version 9.1, the CP2K developers group (2021).
 CP2K is freely available from https://www.cp2k.org/ .

 Kuehne,Thomas D.; Iannuzzi,Marcella; Del Ben,Mauro;
 Rybkin,Vladimir V.; Seewald,Patrick; Stein,Frederick; Laino,Teodoro;
 Khaliullin,Rustam Z.; Schuett,Ole; Schiffmann,Florian; Golze,Dorothea;
 Wilhelm,Jan; Chulkov,Sergey; Bani-Hashemian,Mohammad Hossein;
 Weber,Valery; Borstnik,Urban; Taillefumier,Mathieu;
 Jakobovits,Alice Shoshana; Lazzaro,Alfio; Pabst,Hans; Mueller,Tiziano;
 Schade,Robert; Guidon,Manuel; Andermatt,Samuel; Holmberg,Nico;
 Schenter,Gregory K.; Hehn,Anna; Bussy,Augustin; Belleflamme,Fabian;
 Tabacchi,Gloria; Gloess,Andreas; Lass,Michael; Bethune,Iain;
 Mundy,Christopher J.; Plessl,Christian; Watkins,Matt;
 VandeVondele,Joost; Krack,Matthias; Hutter,Juerg. 
 The Journal of Chemical Physics, 152 (19), (2020). 
 CP2K: An electronic structure and molecular dynamics software package -
 Quickstep: Efficient and accurate electronic structure calculations.
 https://doi.org/10.1063/5.0007045

 Goerigk, Lars; Hansen, Andreas; Bauer, Christoph; Ehrlich, Stephan;
 Najibi, Asim; Grimme, Stefan. , 19 (48), (2017). 
 A look at the density functional theory zoo with the advanced GMTKN55 database
 for general main group thermochemistry, kinetics and noncovalent interactions.
 https://doi.org/10.1039/C7CP04913G

 Schuett, Ole; Messmer, Peter; Hutter, Juerg; VandeVondele, Joost. 
 Electronic Structure Calculations on Graphics Processing Units, John
 Wiley & Sons, Ltd, 173-190 (2016). 
 GPU-Accelerated Sparse Matrix-Matrix Multiplication for
 Linear Scaling Density Functional Theory.
 https://doi.org/10.1002/9781118670712.ch8

 Heinecke, A; Henry, G; Hutchinson, M; Pabst, H. 
 Proceedings of Intl. Supercomputing Conference, 981-991 (2016). 
 LIBXSMM: Accelerating Small Matrix Multiplications
 by Runtime Code Generation.
 https://doi.org/10.1109/SC.2016.83

 Borstnik, U; VandeVondele, J; Weber, V; Hutter, J. 
 PARALLEL COMPUTING, 40 (5-6), 47-58 (2014). 
 Sparse matrix multiplication: The distributed block-compressed sparse
 row library.
 https://doi.org/10.1016/j.parco.2014.03.012

 Hutter, J; Iannuzzi, M; Schiffmann, F; VandeVondele, J. 
 WIREs Comput Mol Sci., 4 (1), 15-25 (2014). 
 CP2K: atomistic simulations of condensed matter systems.
 https://doi.org/10.1002/wcms.1159

 Grimme, S; Ehrlich, S; Goerigk, L. 
 JOURNAL OF COMPUTATIONAL CHEMISTRY, 32, 1456 (2011). 
 Effect of the damping function in dispersion corrected density functional theory.
 https://doi.org/10.1002/jcc.21759

 Grimme, S; Antony, J; Ehrlich, S; Krieg, H. 
 JOURNAL OF CHEMICAL PHYSICS, 132 (15), 154104 (2010). 
 A consistent and accurate ab initio parametrization of density
 functional dispersion correction (DFT-D) for the 94 elements H-Pu.
 https://doi.org/10.1063/1.3382344

 VandeVondele, J; Hutter, J. 
 JOURNAL OF CHEMICAL PHYSICS, 127 (11), 114105 (2007). 
 Gaussian basis sets for accurate calculations on molecular systems in
 gas and condensed phases.
 https://doi.org/10.1063/1.2770708

 Krack, M. 
 THEORETICAL CHEMISTRY ACCOUNTS, 114 (1-3), 145-152 (2005). 
 Pseudopotentials for H to Kr optimized for gradient-corrected
 exchange-correlation functionals.
 https://doi.org/10.1007/s00214-005-0655-y

 VandeVondele, J; Krack, M; Mohamed, F; Parrinello, M; Chassaing, T;
 Hutter, J. COMPUTER PHYSICS COMMUNICATIONS, 167 (2), 103-128 (2005). 
 QUICKSTEP: Fast and accurate density functional calculations using a
 mixed Gaussian and plane waves approach.
 https://doi.org/10.1016/j.cpc.2004.12.014

 Frigo, M; Johnson, SG. 
 PROCEEDINGS OF THE IEEE, 93 (2), 216-231 (2005). 
 The design and implementation of FFTW3.
 https://doi.org/10.1109/JPROC.2004.840301

 VandeVondele, J; Hutter, J. 
 JOURNAL OF CHEMICAL PHYSICS, 118 (10), 4365-4369 (2003). 
 An efficient orbital transformation method for electronic structure
 calculations.
 https://doi.org/10.1063/1.1543154

 Hartwigsen, C; Goedecker, S; Hutter, J. 
 PHYSICAL REVIEW B, 58 (7), 3641-3662 (1998). 
 Relativistic separable dual-space Gaussian pseudopotentials from H to Rn.
 https://doi.org/10.1103/PhysRevB.58.3641

 Lippert, G; Hutter, J; Parrinello, M. 
 MOLECULAR PHYSICS, 92 (3), 477-487 (1997). 
 A hybrid Gaussian and plane wave density functional scheme.
 https://doi.org/10.1080/002689797170220

 Perdew, JP; Burke, K; Ernzerhof, M. 
 PHYSICAL REVIEW LETTERS, 77 (18), 3865-3868 (1996). 
 Generalized gradient approximation made simple.
 https://doi.org/10.1103/PhysRevLett.77.3865

 Goedecker, S; Teter, M; Hutter, J. 
 PHYSICAL REVIEW B, 54 (3), 1703-1710 (1996). 
 Separable dual-space Gaussian pseudopotentials.
 https://doi.org/10.1103/PhysRevB.54.1703


 -------------------------------------------------------------------------------
 -                                                                             -
 -                                T I M I N G                                  -
 -                                                                             -
 -------------------------------------------------------------------------------
 SUBROUTINE                       CALLS  ASD         SELF TIME        TOTAL TIME
                                MAXIMUM       AVERAGE  MAXIMUM  AVERAGE  MAXIMUM
 CP2K                                 1  1.0     0.04     0.04 10417.09 10417.12
 qs_energies                          1  2.0     0.00     0.00 10414.58 10414.62
 scf_env_do_scf                       1  3.0     0.00     0.00 10397.42 10397.45
 scf_env_do_scf_inner_loop          377  4.0     0.01     0.03 10335.61 10335.86
 qs_ks_update_qs_env                378  5.0     0.00     0.00  4995.84  4997.01
 rebuild_ks_matrix                  377  6.0     0.00     0.00  4993.65  4994.82
 qs_ks_build_kohn_sham_matrix       377  7.0     0.08     0.09  4993.65  4994.82
 qs_rho_update_rho                  378  5.0     0.00     0.00  4126.50  4127.95
 calculate_rho_elec                 756  6.0     9.81     9.89  4126.49  4127.94
 grid_collocate_task_list           756  7.0  3111.95  3178.91  3111.95  3178.91
 qs_vxc_create                      377  8.0     0.01     0.01  2829.26  2830.83
 pw_transfer                      11144  9.5     1.37     1.73  2628.17  2770.36
 fft_wrap_pw1pw2                  10390 10.5     0.19     0.23  2607.78  2749.72
 fft_wrap_pw1pw2_180               5854 11.9   193.29   216.87  2513.85  2646.45
 xc_rho_set_and_dset_create         377 10.0    28.10    28.66  1810.25  2117.95
 fft3d_ps                         10390 12.5  1258.34  1292.25  1964.07  2116.49
 sum_up_and_integrate               189  8.0     4.72     4.85  1911.63  1911.70
 integrate_v_rspace                 378  9.0     0.02     0.02  1906.91  1907.03
 xc_vxc_pw_create                   189  9.0    26.80    27.67  1780.07  1781.63
 grid_integrate_task_list           378 10.0  1525.83  1557.26  1525.83  1557.26
 qs_scf_new_mos                     377  5.0     0.00     0.00  1239.59  1242.06
 qs_scf_loop_do_ot                  377  6.0     0.00     0.01  1239.59  1242.05
 dbcsr_multiply_generic           11343  9.9     0.81     0.86  1177.21  1182.70
 ot_scf_mini                        377  7.0     0.03     0.03  1146.82  1148.30
 density_rs2pw                      756  7.0     0.07     0.08   987.86  1053.53
 xc_exc_calc                        188  9.0     2.42     2.42  1049.19  1049.19
 xc_functional_eval                 377 11.0     0.01     0.01   697.07  1005.48
 pbe_lsd_eval                       377 12.0   697.06  1005.48   697.06  1005.48
 multiply_cannon                  11343 10.9     1.20     1.50   963.70   988.03
 multiply_cannon_loop             11343 11.9     0.84     0.98   924.86   953.37
 multiply_cannon_multrec          45372 12.9   752.14   815.31   752.29   815.47
 ot_mini                            377  8.0     0.00     0.00   615.91   617.38
 mp_alltoall_z22v                 10390 14.5   393.41   544.83   393.41   544.83
 rs_pw_transfer                    5674  9.0     0.12     0.14   431.78   498.89
 yz_to_x                           5293 12.6   101.47   105.66   353.59   495.09
 x_to_yz                           5097 14.4   210.46   211.49   351.75   366.10
 ot_new_cg_direction                189  9.0     0.01     0.01   360.79   360.79
 apply_preconditioner_dbcsr         380 10.0     0.00     0.00   357.71   359.09
 apply_all                          380 11.0     0.55     0.59   357.71   359.09
 potential_pw2rs                    378 10.0     0.57     0.63   347.10   347.33
 mp_sum_d                         30946 11.4   170.68   300.59   170.68   300.59
 mp_waitall_1                    602310 13.9   238.62   274.06   238.62   274.06
 mp_waitany                       18176 11.0   199.31   271.37   199.31   271.37
 rs_pw_transfer_RS2PW_180           758  9.0    75.93    91.49   199.64   263.69
 pw_scatter_p                      5097 13.4   252.57   257.46   252.57   257.46
 qs_ot_get_derivative               378  9.0     0.01     0.01   252.60   254.10
 qs_ot_get_p                        756  8.0     0.01     0.01   234.23   238.00
 -------------------------------------------------------------------------------

 The number of warnings for this run is : 0
 
 -------------------------------------------------------------------------------
  **** **** ******  **  PROGRAM ENDED AT                 2022-12-08 15:23:12.302
 ***** ** ***  *** **   PROGRAM RAN ON             node0579.palmetto.clemson.edu
 **    ****   ******    PROGRAM RAN BY                                   svicchi
 ***** **    ** ** **   PROGRAM PROCESS ID                                867981
  **** **  *******  **  PROGRAM STOPPED IN   /scratch1/svicchi/CP2K-367299.pbs02
